# LAMMPS data file for rigid bodies

1	atoms		
3	atom types	

0  0.02 xlo xhi
0  0.01 ylo yhi
0  0.10 zlo zhi

Atoms				

1	1 2e-3 2500	0.009 0.005 0.05
