ITEM: TIMESTEP
12000
ITEM: NUMBER OF ATOMS
1800
ITEM: BOX BOUNDS mm mm mm
-0.05 0.05
-0.05 0.05
0 0.15
ITEM: ATOMS id type x y z ix iy iz vx vy vz fx fy fz omegax omegay omegaz radius 
150 1 0.00410829 -0.0473039 0.00275821 0 0 0 0.0524714 -0.0575164 -0.197667 0 0 -0.00160516 -26.5435 -43.6183 -31.5704 0.0025 
241 1 0.00935412 -0.0465339 0.00393063 0 0 0 -0.0628545 0.0692806 -0.149687 0.0132993 -0.016644 0.00469529 19.7252 34.0365 1.36241 0.0025 
217 1 -0.0163451 -0.0445704 0.00256614 0 0 0 -0.334608 -0.196875 -0.0475166 0.0264461 -0.136544 0.000198741 -11.3413 51.7019 -12.4675 0.0025 
410 1 -0.00931793 -0.0465802 0.00317042 0 0 0 0.36019 0.110191 0.0334653 -0.0145389 -0.018376 0.00057221 -4.19472 -37.3626 10.8393 0.0025 
28 1 -0.000329047 -0.044301 0.00275519 0 0 0 -0.031342 0.180988 -0.236646 0.0786023 0.0122845 -0.0701226 17.0522 48.0916 0.199285 0.0025 
279 1 0.015032 -0.0450446 0.00251375 0 0 0 -0.180092 0.109549 0.0420401 0.0121355 -0.0109782 -0.00129127 -11.79 40.704 -8.06467 0.0025 
409 1 0.0196738 -0.0431419 0.00280936 0 0 0 0.222234 0.220838 -0.0856822 0 0 -0.00160516 -27.6955 -11.1258 12.7537 0.0025 
413 1 -0.0261438 -0.0394807 0.0024597 0 0 0 -0.231566 0.142386 -0.0340211 0.00241085 -0.00122416 0.0524716 -3.99449 11.8303 -18.2202 0.0025 
37 1 -0.0215241 -0.0423481 0.0025009 0 0 0 0.0536619 0.0285412 0.0572615 0.000599765 0.00114941 -0.00166848 -19.7399 -23.588 -20.5159 0.0025 
103 1 -0.0170555 -0.0397189 0.00259925 0 0 0 -0.0641004 -0.0209033 0.143093 -0.0264461 0.136544 -0.00340906 25.1615 15.5498 18.7842 0.0025 
18 1 -0.0119565 -0.0418233 0.00263582 0 0 0 0.12678 -0.127727 0.046162 0.0433254 -0.0347572 -0.110308 -3.94577 13.9624 21.981 0.0025 
218 1 -0.00621729 -0.0427583 0.00245463 0 0 0 0.0982503 -0.0923963 -0.215769 0.0799686 -0.122516 0.0412001 32.8736 10.5754 33.1087 0.0025 
85 1 -0.00161831 -0.0394141 0.00248082 0 0 0 -0.0171335 0.264703 0.0145075 -0.0181898 -0.0167107 -0.00492598 44.1842 -15.6343 28.4281 0.0025 
141 1 0.00657917 -0.0426714 0.00247343 0 0 0 0.176038 -0.0975649 0.0197134 0.0115767 -0.0763097 0.0207235 -7.08322 18.5473 -9.25255 0.0025 
230 1 0.0114522 -0.0415839 0.00260449 0 0 0 0.193089 -0.0260865 0.184093 -0.0483817 -0.147942 -0.00785824 -21.1631 -8.43605 -6.85379 0.0025 
101 1 0.0160149 -0.0396948 0.00252682 0 0 0 -0.0636096 0.0450736 -0.183291 0.0680303 0.0263129 0.000464779 31.141 7.19229 -13.4236 0.0025 
389 1 0.0241723 -0.0407791 0.00255963 0 0 0 0.172594 -0.0239029 0.121372 0 0 -0.00160516 -14.5268 -0.896225 22.3571 0.0025 
95 1 -0.0212818 -0.0365713 0.00243108 0 0 0 0.135346 -0.0860671 0.177119 -0.00537701 0.00220189 0.114603 20.2397 19.0442 3.13925 0.0025 
438 1 -0.0128701 -0.0368507 0.00243986 0 0 0 -0.129438 -0.259466 0.177415 0.00352497 0.00312311 0.0925844 31.2038 30.9676 0.699112 0.0025 
268 1 0.00495547 -0.0380237 0.00244893 0 0 0 -0.15556 -0.0327867 -0.0455713 -0.0566961 0.0826937 -0.0419772 -9.04398 -26.9831 4.80272 0.0025 
126 1 0.0106001 -0.036753 0.00269257 0 0 0 0.342845 -0.157638 -0.0965692 -0.0302122 0.13292 0.00223516 -78.12 -19.2445 12.6125 0.0025 
213 1 0.0202401 -0.036872 0.00323512 0 0 0 0.147613 0.152073 -0.163255 0.00945112 -0.000295507 -0.0398625 10.2628 -28.2313 8.69986 0.0025 
134 1 0.0251236 -0.0359033 0.00329679 0 0 0 0.142399 0.171564 0.223206 0.0139195 0.0026593 -0.00213074 33.7088 26.2997 -20.7164 0.0025 
309 1 0.030278 -0.0365383 0.00234978 0 0 0 -0.181633 0.0120753 0.442081 0.00715788 0.00221746 0.372986 3.10058 -99.2258 24.8344 0.0025 
10 1 -0.0335228 -0.0336241 0.00288248 0 0 0 0.214755 -0.218031 0.0382744 0 0 -0.00160516 -16.0952 17.2584 50.6715 0.0025 
244 1 -0.0284637 -0.034771 0.00257899 0 0 0 0.321173 -0.0976705 0.162564 -0.0537846 -0.0709443 -0.00443701 0.137801 27.5571 -40.6877 0.0025 
81 1 -0.0160597 -0.0329886 0.00257098 0 0 0 0.0307649 -0.00643273 -0.233781 0 0 -0.00160516 -6.64155 -40.3831 16.2641 0.0025 
295 1 -0.00434025 -0.0351909 0.00247334 0 0 0 -0.021485 0.0375775 0.11521 -0.137465 -0.0511467 0.0169695 78.7975 -4.98961 -5.09833 0.0025 
68 1 0.000277362 -0.0335692 0.00248071 0 0 0 0.386515 -0.00464785 0.0824669 0.14255 0.0641011 0.0135164 31.0478 -8.19218 -20.6094 0.0025 
234 1 0.0152511 -0.034749 0.0028387 0 0 0 -0.104663 -0.147089 -0.0612128 0.0906277 -0.0389781 -0.0596991 -39.0771 -6.17485 -34.5329 0.0025 
266 1 -0.0309749 -0.0291668 0.0024491 0 0 0 -0.0701295 -0.00650487 -0.0332941 -0.0326249 -0.0498627 0.0757703 -15.8613 -17.5498 102.891 0.0025 
113 1 -0.0256771 -0.0307067 0.00266164 0 0 0 0.181253 0.0287074 0.0797756 -0.00609479 0.0834343 -0.011382 35.9698 24.5709 9.52625 0.0025 
291 1 -0.0093728 -0.0330574 0.00259266 0 0 0 -0.101242 0.0971651 0.0350466 0.020678 0.00389435 -0.0279087 88.0622 3.73415 -30.2153 0.0025 
30 1 0.00451403 -0.0308994 0.00238861 0 0 0 -0.0207784 0.310497 -0.307454 0.00204801 -0.0142588 0.251001 33.8029 -19.1574 6.09154 0.0025 
220 1 0.0113324 -0.0317426 0.00300718 0 0 0 0.0322163 -0.0415907 -0.159307 -0.0535688 0.0383123 -0.00208379 -35.7953 0.404346 -37.9014 0.0025 
440 1 0.0194295 -0.0298971 0.00261987 0 0 0 0.180941 0.11915 0.101463 0 0 -0.00160516 10.1157 31.1124 -43.5979 0.0025 
13 1 0.0243321 -0.0309605 0.00307978 0 0 0 0.00370156 0.0983033 -0.29464 0 0 -0.00160516 -36.5461 -8.79723 -26.0203 0.0025 
66 1 0.0293566 -0.0314591 0.00270219 0 0 0 -0.118405 -0.0994791 0.152395 -0.00945882 -0.0146464 -0.000765991 -35.164 -12.4671 -14.2904 0.0025 
205 1 0.0377732 -0.0288189 0.00249007 0 0 0 0.0802001 0.0904938 0.0718659 -0.0447092 -0.0611734 -0.00660734 9.26847 -10.5176 10.4767 0.0025 
296 1 -0.0398552 -0.0255222 0.00262012 0 0 0 0.0623656 -0.109734 -0.0165352 0 0 -0.00160516 -16.1054 6.75878 -43.5811 0.0025 
306 1 -0.0362179 -0.0292986 0.00282004 0 0 0 -0.305203 -0.0905999 0.17678 0.00113434 -0.000502583 -0.00405253 59.0498 17.2557 3.13421 0.0025 
195 1 -0.028032 -0.025195 0.00251226 0 0 0 -0.0399715 -0.103958 0.130012 0.0526956 0.0510722 -0.00234166 -6.30879 9.32101 -3.488 0.0025 
434 1 -0.0174397 -0.0277581 0.00248487 0 0 0 -0.0451645 0.122105 -0.122212 -0.0136055 0.00273154 0.00949426 -6.11443 21.3087 25.2431 0.0025 
265 1 -0.0127524 -0.0289817 0.00364448 0 0 0 -0.364034 0.209873 -0.100325 -0.0229047 -0.0254291 0.0110169 30.2395 75.7053 74.7707 0.0025 
286 1 -0.00848705 -0.0267115 0.00253992 0 0 0 -0.455849 -0.0387311 -0.156239 0.0369805 0.0221836 -0.0113948 58.8261 11.6323 9.44871 0.0025 
225 1 9.80683e-05 -0.0285758 0.00251807 0 0 0 -0.14828 0.134254 -0.0587822 -0.0179089 -0.0382897 -0.0553431 -15.3186 -2.55811 -58.488 0.0025 
32 1 0.00738948 -0.0253955 0.0029098 0 0 0 0.165515 0.215452 -0.0417857 -0.00923639 0.00218514 -0.025156 -4.57347 2.90271 -6.24819 0.0025 
346 1 0.0126758 -0.0269324 0.00315251 0 0 0 0.214829 0.010209 0.163725 -0.017759 -0.00511724 -0.0338376 52.862 6.2364 40.411 0.0025 
424 1 0.0174416 -0.0242118 0.0033562 0 0 0 0.0967327 -0.299309 -0.172838 0 0 -0.00160516 -10.4426 -34.6181 37.1865 0.0025 
304 1 0.0260926 -0.0261937 0.00241378 0 0 0 0.48062 0.268833 0.174473 -0.00781934 -0.0024405 0.162222 -47.6616 -2.29279 -5.58254 0.0025 
285 1 0.0322554 -0.0274247 0.00243231 0 0 0 -0.00234786 -0.0758076 0.0521061 0.00973683 -0.0373314 0.0116346 -16.9609 -0.368067 9.30063 0.0025 
404 1 -0.0370919 -0.0211985 0.00288764 0 0 0 -0.0731833 0.125834 -0.0120043 0.0316297 -0.00325519 -8.58119e-05 0.452245 51.9421 -51.6764 0.0025 
365 1 -0.0329678 -0.0245633 0.00246806 0 0 0 -0.015075 -0.0258249 0.14011 -0.0168713 0.00307621 0.0337753 -2.78873 -1.4554 51.1784 0.0025 
15 1 -0.0236723 -0.0218578 0.00256081 0 0 0 0.207761 0.0136146 0.0506677 -0.00376198 0.000487847 -0.00180809 12.0683 8.19283 -19.3093 0.0025 
421 1 -0.0187518 -0.0227079 0.00269323 0 0 0 -0.193453 -0.136196 -0.019068 -0.00162397 -0.0175643 -0.0222445 -5.56588 -23.0601 -8.60336 0.0025 
334 1 -0.00533501 -0.0227233 0.0023795 0 0 0 -0.168444 0.0268425 -0.0598832 0.0863368 -0.0325312 0.274003 -10.4081 -18.598 -7.12056 0.0025 
87 1 0.000813128 -0.022435 0.00259517 0 0 0 -0.190826 0.074838 0.188244 0 0 -0.00160516 -2.61005 -21.5843 7.05186 0.0025 
75 1 0.0120247 -0.0219755 0.00248009 0 0 0 -0.0857846 -0.0944015 -0.0170654 0.104763 -0.0721898 0.00333864 -39.1936 5.5495 -35.1226 0.0025 
307 1 0.0224374 -0.0226239 0.00244366 0 0 0 -0.139191 -0.359198 -0.113953 -0.0100696 0.00281353 0.062015 14.3656 1.03441 14.8104 0.0025 
149 1 0.028823 -0.0215101 0.00438783 0 0 0 -0.164849 -0.0537205 0.060294 0.0729125 0.0448545 -0.0521095 -36.8137 3.41879 37.5292 0.0025 
44 1 0.040268 -0.0245823 0.0029279 0 0 0 0.123388 0.0241946 -0.357903 0.0786488 -0.0530932 0.0260546 35.4311 -27.1492 15.7979 0.0025 
58 1 -0.0420439 -0.020938 0.00264205 0 0 0 0.0164901 0.0389846 0.153055 -0.0316297 0.00325519 -0.0031245 -0.555884 13.9669 45.1749 0.0025 
187 1 -0.0293055 -0.0198672 0.00253203 0 0 0 0.0543217 0.00797712 0.0177787 0.163256 0.0177466 -0.132521 28.0016 -26.9846 -11.1956 0.0025 
380 1 -0.0202681 -0.0179271 0.00244962 0 0 0 0.0383404 0.220008 0.0706787 0.00172314 -0.00324586 0.0718927 -9.59454 57.6015 -14.9728 0.0025 
293 1 -0.0143862 -0.0186418 0.00265822 0 0 0 -0.0118245 0.0863695 0.0108375 0.00830763 -0.015395 -0.000267442 11.4714 -17.3688 -29.3911 0.0025 
433 1 -0.00991928 -0.0209246 0.00268302 0 0 0 -0.318867 -0.252274 0.0352217 -0.0729465 0.0319103 -0.000232287 48.2567 -14.1283 54.314 0.0025 
52 1 -0.00104899 -0.01756 0.00247828 0 0 0 -0.148552 0.04207 -0.456702 -0.0345168 0.009547 -0.0671297 44.9142 -42.0442 10.5004 0.0025 
273 1 0.00816343 -0.0190181 0.003139 0 0 0 -0.1053 0.169793 0.105665 -0.108885 0.0324508 0.0144912 -10.6104 41.8486 16.4036 0.0025 
366 1 0.0186363 -0.0193791 0.00253491 0 0 0 0.123378 -0.209595 -0.0073954 0.042521 -0.0619754 -0.0763071 11.1271 -7.88413 49.2332 0.0025 
159 1 0.0252411 -0.0184014 0.00294626 0 0 0 -0.0421964 -0.0461256 0.140573 -0.0321875 0.0259867 -0.0145352 -17.7985 30.589 69.2267 0.0025 
448 1 0.038502 -0.0200292 0.00242229 0 0 0 -0.255106 -0.0669077 0.00912919 -0.0348375 0.122512 0.124263 -23.9289 -7.95826 -27.6564 0.0025 
339 1 0.0434728 -0.0193102 0.00246537 0 0 0 0.168917 -0.106013 -0.0632868 -0.115226 0.0477197 0.0469371 -12.6133 -1.76813 28.3938 0.0025 
9 1 -0.0346307 -0.0168323 0.00253192 0 0 0 -0.319712 0.269653 -0.0464452 0 0 -0.00160516 17.5479 -22.092 30.5412 0.0025 
445 1 -0.0300177 -0.0146794 0.0024909 0 0 0 -0.1345 -0.121225 -0.0441165 9.87696e-05 0.000296695 0.00464892 -13.1883 -33.3351 -57.5322 0.0025 
6 1 -0.0251964 -0.0169977 0.00275464 0 0 0 -0.00743058 -0.296974 -0.225889 -0.0134704 -0.0491501 0.00240382 20.952 -11.3338 25.3741 0.0025 
158 1 -0.0102438 -0.0147964 0.00252721 0 0 0 -0.0761503 0.154698 0.116391 0 0 -0.00160516 -32.6728 16.6843 -57.5458 0.0025 
40 1 -0.00601026 -0.0176667 0.00256814 0 0 0 0.238096 0.0119067 0.130049 -0.0408703 -0.0327871 -0.00485458 8.38995 -3.10425 -36.9832 0.0025 
405 1 0.00371589 -0.014786 0.00249678 0 0 0 0.0778661 -0.116537 0.0476164 -0.092755 -0.00833897 -0.0044495 -8.1547 -12.3092 -32.0929 0.0025 
379 1 0.0130726 -0.0170595 0.00248591 0 0 0 0.159819 0.109298 0.146192 0.0411492 -0.0290807 -0.115676 -14.8662 33.4029 21.3682 0.0025 
142 1 0.0203014 -0.0144327 0.00277912 0 0 0 0.154702 0.159508 -0.0352424 -0.0393502 0.0298781 -0.0503312 -12.257 16.0413 16.6804 0.0025 
20 1 0.0299601 -0.0161001 0.00248356 0 0 0 -0.00135283 0.443619 -0.0638275 -4.57616e-05 -0.000738931 0.0132018 -1.43018 -11.4796 -67.9207 0.0025 
386 1 0.0401654 -0.0151396 0.00252955 0 0 0 -0.0192801 -0.0685769 -0.299355 0 0 -0.00160516 29.9921 51.8525 -55.336 0.0025 
74 1 -0.0387907 -0.013125 0.00246422 0 0 0 -0.00186572 -0.14533 0.140899 4.61179e-05 0.00212019 0.0408086 -16.5027 0.881014 21.2489 0.0025 
449 1 -0.0339413 -0.0113864 0.00245055 0 0 0 0.113638 0.27982 -0.00487261 -0.00107661 -0.00347651 0.0711827 5.6091 9.16377 -40.6755 0.0025 
331 1 -0.0239229 -0.0122251 0.00244389 0 0 0 -0.0518953 -0.0630302 0.0668784 0.128322 -0.031832 0.018919 -2.47627 0.694006 -31.8927 0.0025 
226 1 -0.00560411 -0.0127252 0.00280123 0 0 0 -0.00936862 0.0212574 0.0822111 0.00365084 0.005391 -0.11639 31.6587 -7.50595 -16.0101 0.0025 
22 1 -6.2192e-05 -0.0112791 0.00240886 0 0 0 0.207993 -0.0544102 -0.0440411 0.0207461 -0.0187505 0.15184 22.7349 21.3149 58.368 0.0025 
7 1 0.008594 -0.0141009 0.00265485 0 0 0 -0.236001 -0.137791 -0.0442268 0.0973112 0.0489287 -0.000211379 -5.7305 37.7514 -2.46775 0.0025 
233 1 0.0176729 -0.0100975 0.00251414 0 0 0 0.50564 0.0594153 -0.0470874 -0.0186072 -0.0361262 -0.00858254 38.1143 -55.867 -4.16336 0.0025 
313 1 0.0344293 -0.0136401 0.00278728 0 0 0 0.321622 0.255988 0.190916 0 0 -0.00160516 15.7635 -55.3825 -47.2894 0.0025 
426 1 0.0428356 -0.0106773 0.00267122 0 0 0 -0.0341287 0.161561 0.0365356 0.113014 -0.0502156 -0.00351341 35.843 -6.23296 -24.9325 0.0025 
196 1 -0.045436 -0.0115903 0.00260962 0 0 0 -0.0516432 0.0898642 0.00415411 0 0 -0.00160516 8.92462 -26.5185 -33.7619 0.0025 
238 1 -0.0420978 -0.00781491 0.00243578 0 0 0 0.0876169 -0.257871 0.0478455 -0.154908 -0.0607107 0.100121 28.1941 -16.2893 13.15 0.0025 
36 1 -0.0281574 -0.00977876 0.00246784 0 0 0 -0.0665871 0.0788893 0.139188 -0.0892291 0.0109161 0.0104329 -2.59647 18.5968 -20.0157 0.0025 
252 1 -0.0195391 -0.00984344 0.00254673 0 0 0 -0.0748437 0.0387386 -0.0276816 -0.0430907 -0.0837085 -0.0169433 17.4001 28.7763 2.02077 0.0025 
117 1 -0.0144468 -0.00968591 0.00249676 0 0 0 -0.116342 0.317261 -0.083839 -6.95116e-07 -9.87915e-05 0.000370722 -14.3744 -47.3587 25.3959 0.0025 
240 1 0.00525505 -0.00948609 0.00266011 0 0 0 -0.0270299 0.278335 0.412264 0 0 -0.00160516 -26.8488 10.5856 12.8933 0.0025 
24 1 0.0103847 -0.00853425 0.00249695 0 0 0 -0.0689516 -0.0333987 0.147657 -0.172961 -0.0535014 -0.150544 -10.2222 27.6674 -6.38005 0.0025 
338 1 0.0223492 -0.00973411 0.00418464 0 0 0 -0.218542 -0.094342 0.205468 -0.013253 0.0463842 0.02186 -35.9649 19.1022 -29.7249 0.0025 
337 1 0.0292482 -0.00987513 0.00343261 0 0 0 0.0514127 -0.100616 0.179679 -0.0339862 -0.0221684 0.00411208 -10.3857 66.6856 22.7675 0.0025 
237 1 0.0382508 -0.00891873 0.00283621 0 0 0 0.139396 -0.169987 0.179391 -0.112763 0.0491431 -0.000216059 -14.7433 13.1893 28.9929 0.0025 
362 1 0.0469283 -0.00779245 0.00267373 0 0 0 0.0256296 -0.0215455 0.0310395 -0.110228 -0.122749 -0.163717 9.95779 -1.71569 7.1239 0.0025 
292 1 -0.04709 -0.00680566 0.00246694 0 0 0 -0.169464 0.199669 0.15294 0.144696 -0.108684 -0.109809 -13.5921 30.3852 -41.1419 0.0025 
949 1 -0.0376975 -0.00567769 0.00251058 0 0 0 0.0578908 -0.130262 0.0553621 0.0804354 0.0358413 -0.197675 17.4523 -14.0953 -0.166054 0.0025 
367 1 -0.031459 -0.0061234 0.00250369 0 0 0 -0.247664 -0.215362 -0.0828805 -0.0617339 0.0730598 0.00268066 31.7825 -18.3496 58.7701 0.0025 
49 1 -0.023807 -0.00701498 0.00254179 0 0 0 0.208911 0.170795 0.0425238 -0.134539 -0.0107825 -0.208351 25.2193 -25.9191 16.0521 0.0025 
328 1 -0.0172864 -0.00550006 0.0031034 0 0 0 -0.216376 -0.0124032 -0.226089 0.0470501 0.0856183 0.013881 -11.2906 -50.796 -11.5275 0.0025 
278 1 -0.0123114 -0.00490503 0.00257119 0 0 0 0.0700451 0.113631 0.116497 0 0 -0.00160516 -16.1168 -44.572 34.5136 0.0025 
61 1 -0.00513191 -0.00541515 0.00244333 0 0 0 0.142237 -0.124954 -0.21071 -0.00214708 0.00413059 0.0915007 1.13145 31.8321 -65.626 0.0025 
347 1 1.03172e-05 -0.00621792 0.00243793 0 0 0 0.10151 -0.0466262 0.0245146 -0.00506473 0.000501408 0.100185 16.3214 15.2237 27.7141 0.0025 
202 1 0.00640719 -0.00457959 0.00254566 0 0 0 -0.0336151 0.0227622 0.296907 0 0 -0.00160516 -3.72391 33.8009 -15.1429 0.0025 
154 1 0.0115329 -0.00357426 0.00265463 0 0 0 0.102471 0.0485776 0.278054 0 0 -0.00160516 -7.285 44.4465 17.856 0.0025 
80 1 0.0174328 -0.00514407 0.00266625 0 0 0 0.292035 0.106747 0.103335 -0.0157224 0.0452172 -0.0333019 50.6359 3.4275 -54.0441 0.0025 
1046 1 0.0288511 -0.00481786 0.00265605 0 0 0 0.0651152 -0.0119527 0.232976 0.00716892 0.0045011 -0.0107797 -7.18912 14.2591 -13.3284 0.0025 
92 1 0.0334724 -0.00739753 0.00265773 0 0 0 0.0366 -0.314809 -0.0929404 0.0424871 0.0202168 -0.0299205 -30.448 1.96372 6.39518 0.0025 
945 1 -0.0434364 -0.00290321 0.00242228 0 0 0 -0.0773844 0.0278343 0.0283146 0.00409971 -0.0177142 0.12543 19.3714 -5.48851 20.4813 0.0025 
1469 1 0.0132632 -0.000574063 0.0306994 0 0 0 -0.469612 0.351961 0.163553 0 0 -0.00160516 112.321 -10.2349 -3.7104 0.0025 
98 1 -0.034486 -0.00184787 0.00255093 0 0 0 0.0143763 -0.019882 0.00411613 0.00282169 -0.00112765 -0.00144064 -18.9761 12.8749 -8.25274 0.0025 
342 1 -0.0272229 -0.00327966 0.00292662 0 0 0 -0.0121026 -0.0490548 0.0183281 -0.00951042 -0.00296212 -0.0153506 7.09859 -13.2768 27.656 0.0025 
1337 1 -0.0209102 -0.00199904 0.00261008 0 0 0 -0.165373 -0.0388429 -0.355534 0 0 -0.00160516 26.7418 31.3721 -22.7737 0.0025 
1127 1 -0.0157616 -0.000677757 0.00297712 0 0 0 0.0967045 -0.118727 0.173474 0.000584308 -0.000638821 -0.0015364 -8.42662 -48.614 -27.661 0.0025 
330 1 -0.0144637 -0.000248199 0.0168169 0 0 0 0.0153475 0.0656218 0.105945 0 0 -0.00160516 66.4312 10.4231 80.3201 0.0025 
21 1 0.00220981 -0.00143511 0.00247933 0 0 0 -0.0143788 0.199309 -0.0956374 -0.0236461 -0.0473556 -0.0745189 21.0752 -5.09035 2.33017 0.0025 
1041 1 0.0187987 -0.000340976 0.00269353 0 0 0 -0.161409 -0.0124776 -0.285137 0.00120647 0.0037302 -0.0014468 -3.19556 28.9295 19.5659 0.0025 
1404 1 -0.0386731 -0.000866806 0.0343417 0 0 0 -0.0677867 -0.00686695 0.123776 0.000101797 0.00206694 -0.00297137 48.8379 -39.6163 -16.1906 0.0025 
425 1 0.0388602 -0.00313129 0.00270495 0 0 0 0.15153 0.0210911 -0.091084 0 0 -0.00160516 -6.26315 -16.2519 18.5212 0.0025 
275 1 -0.0399149 -0.0119542 0.0490418 0 0 0 0.401696 0.19691 0.928466 0 0 -0.00160516 -25.5632 -11.9453 -7.03929 0.0025 
305 1 0.0453221 -0.00309794 0.00268879 0 0 0 0.0641014 -0.135075 0.0959068 -0.0454597 0.0825946 -0.0843312 26.3792 0.741997 24.8871 0.0025 
255 1 -0.00421935 -0.0472948 0.00339843 0 0 0 -0.0889337 -0.145393 -0.133846 -0.0454687 -0.0637154 -0.0267095 16.9337 53.9 -28.7894 0.0025 
189 1 -2.24572e-05 -0.047314 0.00681742 0 0 0 -0.171412 0.524517 0.0662827 0.0204921 -0.0205758 -0.000486233 16.9617 -60.1853 -7.60431 0.0025 
257 1 0.00498932 -0.046901 0.00774271 0 0 0 -0.0987065 -0.17732 0.244779 -0.00934076 -0.0601328 -0.0560338 40.2397 -29.7278 -34.6236 0.0025 
82 1 -0.0238525 -0.0407277 0.00721093 0 0 0 -0.0465974 -0.313551 0.222121 -0.00271771 0.000972902 -0.00147384 31.3763 -28.4886 -72.435 0.0025 
354 1 -0.00334777 -0.0436246 0.00660459 0 0 0 0.270513 -0.00328273 -0.0534621 -0.112603 0.0108799 0.0417547 -11.0329 -31.5947 66.7109 0.0025 
377 1 0.00282767 -0.0425267 0.00617056 0 0 0 0.185412 0.256498 0.188283 0.0226816 -0.0148569 -0.0141289 2.14439 -30.1964 36.6745 0.0025 
102 1 -0.0285504 -0.0379443 0.00663654 0 0 0 0.0668279 -0.0972598 -0.136956 -0.0430866 0.026541 -0.131768 44.6124 -17.0059 9.65929 0.0025 
16 1 -0.0175419 -0.0361257 0.00620046 0 0 0 -0.15915 -0.138531 0.0927691 0 0 -0.00160516 -10.9869 -8.37041 -15.9363 0.0025 
8 1 -0.013822 -0.0402442 0.00689711 0 0 0 0.111916 0.0297988 -0.0908683 -0.0433254 0.0347572 0.107097 9.75937 4.47568 -56.9703 0.0025 
167 1 -0.00814238 -0.0383221 0.00322612 0 0 0 0.211697 -0.277009 -0.172879 -0.0788457 0.133187 0.0215816 -27.4554 12.3593 30.9632 0.0025 
70 1 0.00115054 -0.0370961 0.00589071 0 0 0 -0.22373 -0.0910551 -0.0544819 0.0399588 -0.0119023 0.0190167 -19.1679 37.4865 -32.6567 0.0025 
332 1 0.0224789 -0.0392063 0.00712626 0 0 0 -0.15761 0.205176 -0.030339 -0.0089814 0.0265338 -0.058576 -25.2492 25.67 20.3363 0.0025 
348 1 -0.0247612 -0.0346786 0.00601948 0 0 0 0.0195279 -0.123768 0.0321606 0.00255954 -0.00193763 -0.00223426 -28.3909 -2.43932 34.9715 0.0025 
378 1 -0.0122337 -0.0337408 0.00659036 0 0 0 0.000143275 -0.123605 -0.0104886 -0.024193 0.00250573 0.0213676 24.1171 -49.7161 -37.6747 0.0025 
170 1 0.00692298 -0.0343402 0.00512409 0 0 0 0.00396388 -0.27069 -0.0756209 0.0261902 0.0866445 -0.0075846 -27.9586 20.9117 -9.43236 0.0025 
357 1 0.0127856 -0.0348574 0.00711928 0 0 0 0.0928876 -0.0434464 -0.192094 0.00540165 0.0354887 0.0201484 -15.6851 -42.938 -60.7669 0.0025 
262 1 0.0209911 -0.0332163 0.00683124 0 0 0 0.0984062 -0.0793983 -0.0572706 0.027513 0.0341897 -0.00692003 -15.3763 13.5535 42.05 0.0025 
194 1 0.0269987 -0.0328126 0.00695826 0 0 0 -0.260302 0.194368 0.32341 0 0 -0.00160516 -31.0978 -32.8887 -119.642 0.0025 
369 1 0.0344806 -0.0327561 0.00295501 0 0 0 -0.0943556 -0.0408346 -0.131707 -0.0684902 0.0650291 0.00311698 10.6425 17.7516 38.6959 0.0025 
11 1 -0.0331963 -0.0297909 0.00739201 0 0 0 -0.0805564 -0.169088 0.0359495 -0.00528018 -0.00248787 -0.0191152 -67.6385 -31.5091 35.4809 0.0025 
314 1 -0.028514 -0.031527 0.00695172 0 0 0 -0.157962 0.170983 0.147911 2.63905e-05 0.00394004 -0.00198172 26.4155 38.2247 -32.9446 0.0025 
182 1 -0.0209974 -0.0317249 0.00389744 0 0 0 -0.201665 -0.0425108 0.114579 0.0601464 -0.0125561 0.00873426 59.2172 -23.1241 -31.7489 0.0025 
152 1 -0.0165537 -0.0302742 0.00677686 0 0 0 -0.101271 -0.109741 0.0901659 0 0 -0.00160516 28.5213 -28.6966 10.2309 0.0025 
39 1 -0.00711756 -0.031615 0.00796373 0 0 0 0.329051 -0.320947 0.51412 0.0479934 0.0307694 -0.05863 -7.1646 -43.6881 8.75464 0.0025 
115 1 -0.00457709 -0.0301707 0.00392788 0 0 0 -0.0876626 -0.0181857 0.0454701 0.00466939 0.00229585 -0.00829081 -4.3364 76.4684 33.655 0.0025 
160 1 0.00294009 -0.0320133 0.00707544 0 0 0 -0.289872 -0.270711 -0.121748 0 0 -0.00160516 24.7459 7.25805 50.3611 0.0025 
320 1 0.0160908 -0.0311036 0.00618904 0 0 0 0.318738 0.0486639 -0.00784145 0.0111764 -0.0597593 -0.0156653 -50.5557 48.649 34.414 0.0025 
260 1 -0.0380942 -0.0282279 0.00732402 0 0 0 0.0231935 -0.092218 0.0858424 -0.00113434 0.000502583 0.000842214 3.48739 -4.89265 -8.84834 0.0025 
294 1 -0.0296112 -0.0263416 0.00731571 0 0 0 -0.00721109 -0.0494128 0.169691 0.0210164 -0.00240485 -0.0397285 -17.0089 17.2981 -40.4999 0.0025 
394 1 -0.0223458 -0.0267358 0.00250393 0 0 0 0.334838 -0.0614284 0.167625 0 0 -0.00160516 41.9897 41.7004 11.2589 0.0025 
164 1 -0.00213435 -0.0256063 0.0058153 0 0 0 0.0102847 -0.122494 -0.315542 -0.0360591 0.0969255 -0.0458355 -28.444 37.7305 -19.9774 0.0025 
76 1 0.00305714 -0.0267227 0.00602913 0 0 0 0.100329 -0.125086 0.159217 0.0280645 0.0200455 0.0313943 -18.0314 2.95076 -18.6048 0.0025 
323 1 0.0202077 -0.0273573 0.00691589 0 0 0 0.418401 -0.325003 0.362516 0 0 -0.00160516 22.1003 2.08111 -44.4767 0.0025 
435 1 0.0300631 -0.0257837 0.0065304 0 0 0 -0.0421805 0.126616 0.288577 -0.0280749 -0.0168655 0.0940982 -1.34586 22.6836 -57.8469 0.0025 
132 1 0.0354235 -0.0244133 0.00474619 0 0 0 0.0977932 -0.0142522 -0.00811628 0.00642551 -0.0471113 -0.0683671 9.51609 16.6783 -52.2883 0.0025 
372 1 -0.0411812 -0.0234814 0.00734039 0 0 0 0.0113456 0.275672 -0.0210588 -0.115033 -0.00873507 -0.0169702 -45.3849 -39.8612 -13.7284 0.0025 
55 1 -0.0363026 -0.0233499 0.00793004 0 0 0 -0.154546 0.243899 -0.00940594 0.0676782 -0.00581539 0.0209598 26.4019 15.7523 40.2494 0.0025 
374 1 -0.0139696 -0.0241061 0.00330683 0 0 0 -0.0674338 0.119238 -0.284701 0.000577559 0.000194712 -0.00215959 38.7904 15.1587 -61.2901 0.0025 
165 1 -0.0075698 -0.0216946 0.00702332 0 0 0 0.0430843 -0.0853217 -0.0347358 -0.00435691 -0.00189947 -1.53542e-05 49.561 15.8796 23.9008 0.0025 
383 1 0.00485749 -0.0220253 0.00560075 0 0 0 0.190345 -0.00119817 -0.134232 0.0290009 -0.0401157 -0.0106987 -23.5651 6.99988 -32.9395 0.0025 
391 1 0.0246226 -0.0222544 0.00688643 0 0 0 0.171142 -0.16639 -0.145497 -0.0439879 -0.00598209 0.0600808 56.5258 25.4952 -65.166 0.0025 
382 1 -0.0329765 -0.0204611 0.00568092 0 0 0 -0.0299239 -0.0423249 0.179614 -0.125231 0.0189029 0.101025 7.16353 25.0696 -56.4158 0.0025 
163 1 -0.0217794 -0.0229438 0.00727543 0 0 0 -0.236903 -0.606925 -0.0358133 -0.000284236 0.000120974 -0.00117069 3.56537 33.7813 -6.11081 0.0025 
201 1 -0.0175719 -0.0197517 0.00650444 0 0 0 0.0197306 -0.048389 0.177121 -0.000452739 0.00598367 0.0145376 -15.6113 14.6494 -10.709 0.0025 
41 1 -0.00284921 -0.0202594 0.00628274 0 0 0 0.0768334 -0.206703 -0.129669 0.00483945 0.00169037 -0.00222202 -1.25263 -18.0444 -5.75913 0.0025 
140 1 0.0217677 -0.0173 0.00653009 0 0 0 0.331373 -0.262545 -0.406535 0.0136661 -0.0498924 0.0107592 23.6045 -26.9056 -1.20716 0.0025 
356 1 0.0266953 -0.0178496 0.00809566 0 0 0 -0.0559759 -0.107866 0.145659 -0.00951428 -0.0468727 -0.0168509 -78.8847 23.1271 -74.3545 0.0025 
183 1 0.0333787 -0.0200489 0.00269355 0 0 0 -0.254729 0.222756 -0.0891396 0 0 -0.00160516 -82.1339 -0.31534 -19.4593 0.0025 
282 1 0.0420368 -0.0215365 0.00714045 0 0 0 0.161675 -0.103369 -0.0050803 0.0551325 0.10691 -0.019264 8.64063 -4.02173 -4.12433 0.0025 
231 1 -0.0444896 -0.0165275 0.00255108 0 0 0 -0.117663 -0.216485 0.0125341 0 0 -0.00160516 -0.75857 -31.1787 -1.46402 0.0025 
121 1 -0.0391409 -0.0172362 0.00555189 0 0 0 -0.214666 -0.154208 -0.148802 0.00113367 -0.00117217 -0.00451389 35.5552 24.5802 -28.0126 0.0025 
120 1 -0.0227203 -0.0180013 0.0072429 0 0 0 -0.18946 0.0398411 -0.205845 0.0479622 -0.0181725 0.00150438 -1.74129 -33.9178 -8.78234 0.0025 
23 1 -0.0103928 -0.0170853 0.00705916 0 0 0 0.116161 -0.21339 -0.233717 0 0 -0.00160516 10.5203 -57.5073 -35.5231 0.0025 
353 1 0.0018088 -0.0182093 0.00641873 0 0 0 0.116056 -0.255289 -0.111762 0.0425654 0.0297589 0.101949 57.4971 55.3968 -20.3901 0.0025 
340 1 0.011024 -0.0162362 0.00687103 0 0 0 0.0843049 -0.126228 0.0894525 -0.0490141 0.025996 0.113726 -19.9196 42.9561 12.8262 0.0025 
54 1 0.0166838 -0.016303 0.00583969 0 0 0 -0.0550742 0.110002 -0.215508 -0.0355211 0.0644213 0.0806171 -1.74927 -17.7009 54.9094 0.0025 
2 1 0.0251624 -0.0134276 0.0024794 0 0 0 -0.0300346 0.242011 -0.411402 0.0543294 -0.0428758 0.00573405 -8.97975 38.2917 -24.3085 0.0025 
1 1 0.0369422 -0.0167573 0.00600258 0 0 0 0.1748 0.0354098 -0.0102505 0.0112514 0.0334758 -0.0370457 9.26418 -52.3087 30.8254 0.0025 
104 1 0.0451142 -0.0149071 0.00429286 0 0 0 0.0750226 -0.195259 -0.19256 -0.0111773 0.00405293 -0.00111883 -6.86374 7.53598 7.20211 0.0025 
336 1 -0.0417334 -0.011162 0.00624357 0 0 0 0.0565608 0.155907 0.0337761 0 0 -0.00160516 59.2417 -10.2296 35.649 0.0025 
436 1 -0.0266078 -0.0114274 0.00690239 0 0 0 0.115033 0.0253088 0.051865 -0.0348418 0.207619 -0.100973 -10.0389 8.6234 -63.8825 0.0025 
326 1 -0.0167374 -0.0142572 0.0025267 0 0 0 0.239548 0.0887798 0.736293 -0.00830763 0.015395 -0.00294287 -30.2026 92.6059 -47.9514 0.0025 
397 1 -0.0119455 -0.0119543 0.00640777 0 0 0 0.0169329 -0.0164658 0.0675494 -0.00280293 -0.00286102 0.000291559 30.8792 23.858 -3.83365 0.0025 
321 1 -0.00231775 -0.0145663 0.00635822 0 0 0 -0.00274891 -0.0465222 -0.0127583 0 0 -0.00160516 23.7863 15.0901 1.30993 0.0025 
442 1 0.00256217 -0.0123627 0.00674584 0 0 0 -0.0837728 -0.569165 -0.0118238 -0.00800087 0.07087 -0.150508 -20.6081 2.20981 44.4492 0.0025 
401 1 0.00800729 -0.0108091 0.00674717 0 0 0 -0.203914 0.162536 -0.24532 0.0337002 0.0104775 -0.048878 -23.9878 8.04559 -34.1738 0.0025 
384 1 0.0131602 -0.0123852 0.0042584 0 0 0 0.107714 -0.152062 -0.0853321 4.14209e-06 0.000733315 -0.00128568 67.2991 -69.4736 12.4757 0.0025 
153 1 0.030826 -0.013725 0.0068259 0 0 0 0.0331156 -0.247945 -0.0857234 0 0 -0.00160516 -18.1216 -39.6888 27.9075 0.0025 
59 1 0.0391516 -0.0122621 0.00651672 0 0 0 -0.0157044 -0.104513 -0.167143 -0.0816388 -0.0152176 -0.105486 27.8404 -31.6224 3.69411 0.0025 
190 1 -0.00893465 -0.00873265 0.00406948 0 0 0 -0.180182 -0.0349119 -0.041449 0.00280293 0.00286102 -0.00350187 20.5457 -15.2767 -10.8474 0.0025 
65 1 -0.0033743 -0.00915545 0.00541518 0 0 0 -0.166451 0.0914505 0.0877278 -0.00829406 0.0493871 0.0529952 39.8829 -47.6555 -37.856 0.0025 
124 1 0.0344827 -0.0102956 0.00659229 0 0 0 0.0502125 -0.264459 0.0523749 0.000999097 -0.00239296 0.00146834 -5.33669 27.2194 10.5531 0.0025 
27 1 -0.0347551 -0.0057228 0.00641802 0 0 0 0.217361 0.00703052 -0.0766511 0.0951358 -0.00662934 0.135869 47.2602 -8.42679 34.7252 0.0025 
419 1 -0.0286504 -0.00619203 0.00677361 0 0 0 -0.0514915 0.0862899 0.0362535 0.016365 0.00151759 -0.0278855 -32.1797 19.8579 -23.4989 0.0025 
157 1 -0.0210448 -0.00700527 0.00654117 0 0 0 0.0793582 -0.0125727 -0.14145 0.135153 0.0175072 0.205188 4.91504 -22.6382 21.9751 0.0025 
248 1 -0.00874758 -0.00352711 0.00603738 0 0 0 0.0905938 0.170565 0.0442203 0 0 -0.00160516 11.2427 21.6953 -17.9363 0.0025 
1021 1 -0.00156534 -0.00470026 0.00701057 0 0 0 -0.0264149 -0.122227 -0.0249432 0 0 -0.00160516 14.9424 -13.3405 18.0265 0.0025 
38 1 0.00311272 -0.00727778 0.00688956 0 0 0 0.000211734 0.0634412 0.0600695 0 0 -0.00160516 -25.1688 43.4465 6.45084 0.0025 
287 1 0.00922871 -0.00592915 0.00660514 0 0 0 0.260456 0.0749848 0.338373 -0.0446392 0.0129454 0.0051392 15.1214 -20.7639 -14.0415 0.0025 
971 1 0.0227626 -0.00445486 0.00253617 0 0 0 0.295676 0.0408944 0.232874 0 0 -0.00160516 14.0501 66.1181 -21.4131 0.0025 
254 1 0.0258701 -0.00675194 0.00614851 0 0 0 -0.0500803 -0.0128062 -0.140477 -0.00756253 -0.00415665 0.00787335 37.2828 -44.2526 -57.1096 0.0025 
284 1 0.0314665 -0.0062092 0.0070477 0 0 0 0.131965 0.0581941 0.01878 -0.00949437 0.00434097 0.017897 13.0133 -14.7221 -2.45313 0.0025 
290 1 0.0364712 -0.00566565 0.00639163 0 0 0 0.171802 0.304607 -0.140821 0 0 -0.00160516 -48.756 11.8657 31.7341 0.0025 
122 1 0.0419803 -0.00632525 0.00497213 0 0 0 0.166262 0.0530787 0.198877 -0.000251204 0.00107251 -0.001086 -35.6895 -48.0983 9.00034 0.0025 
381 1 -0.0467617 -0.00374069 0.00625573 0 0 0 0.112064 -0.136813 0.0943956 0.000574553 0.112305 0.133959 9.56692 -14.3287 -11.2142 0.0025 
1482 1 0.0407459 -0.00123377 0.0459157 0 0 0 -0.478753 -0.342433 0.637126 0 0 -0.00160516 47.3299 155.543 35.4429 0.0025 
42 1 -0.0392737 -0.00318192 0.00646707 0 0 0 0.0711142 0.049866 -0.225166 0.00312475 0.0486826 0.0405518 -46.8117 26.966 19.3706 0.0025 
1116 1 -0.0242366 -0.00239075 0.00680762 0 0 0 -0.0655151 -0.0937238 -0.0229518 0.00951042 0.00296212 0.0121402 41.6189 -35.3287 7.71992 0.0025 
744 1 0.011843 -0.0421447 0.0488833 0 0 0 0.2022 0.675557 0.618231 0 0 -0.00160516 118.265 24.9037 -90.4148 0.0025 
1080 1 0.0149676 -0.002124 0.00604225 0 0 0 -0.0455419 0.111635 0.023443 0.00439788 -0.00862418 0.00803783 44.2353 10.0643 12.6436 0.0025 