ITEM: TIMESTEP
5600
ITEM: NUMBER OF ATOMS
1800
ITEM: BOX BOUNDS mm mm mm
-0.05 0.05
-0.05 0.05
0 0.15
ITEM: ATOMS id type x y z ix iy iz vx vy vz fx fy fz omegax omegay omegaz radius 
255 1 -0.00223849 -0.0469875 0.00297359 0 0 0 0.0503387 0.10178 0.217131 0 0 -0.00160516 -51.0156 -12.8618 -134.175 0.0025 
217 1 -0.0173519 -0.0435259 0.00434867 0 0 0 0.126472 -0.37617 0.569559 0.039482 -0.00959073 -0.0623081 -194.566 142.56 -24.2477 0.0025 
85 1 -0.00549324 -0.0412375 0.00298993 0 0 0 0.221661 0.476268 -0.179792 0.144359 -0.0865985 -0.0406205 2.86025 7.08471 -63.3269 0.0025 
241 1 0.00527311 -0.0465013 0.00328051 0 0 0 0.144962 -0.227724 0.0612696 0 0 -0.00160516 66.0157 42.469 21.2771 0.0025 
279 1 0.0138574 -0.0429133 0.00295514 0 0 0 -0.177951 -0.498734 0.217783 0 0 -0.00160516 31.8288 47.7127 61.566 0.0025 
150 1 0.00216491 -0.0415983 0.00273902 0 0 0 -0.0722894 -0.35217 0.178862 0 0 -0.00160516 101.662 -4.11844 36.356 0.0025 
101 1 0.00796613 -0.0409054 0.00242403 0 0 0 0.355073 -0.081229 0.419066 -0.006084 -0.00230372 0.128506 52.1606 94.124 31.1862 0.0025 
103 1 -0.0160319 -0.0375242 0.00427615 0 0 0 -0.003341 0.566002 0.276497 -0.179382 -0.0434202 -0.249545 -16.575 46.435 -10.3219 0.0025 
230 1 0.00336225 -0.0362758 0.00328749 0 0 0 -0.526544 -0.0968407 0.17999 0 0 -0.00160516 -30.5894 -65.1975 -16.7883 0.0025 
95 1 -0.0246707 -0.0333056 0.00260302 0 0 0 0.367152 -0.0507638 0.224313 0 0 -0.00160516 38.61 31.9183 -57.2177 0.0025 
438 1 -0.0129684 -0.0332837 0.00261986 0 0 0 -0.120237 0.179106 -0.0413161 0 0 -0.00160516 -44.3279 38.0312 -62.5444 0.0025 
141 1 -0.00168108 -0.0357571 0.00339759 0 0 0 -0.575008 -0.301191 -0.0513451 0.0306919 -0.0504933 0.00836845 43.2477 5.95137 78.9717 0.0025 
220 1 0.0116607 -0.0326001 0.00252479 0 0 0 0.185213 -0.142868 0.0550828 0 0 -0.00160516 15.2734 -23.2889 55.7143 0.0025 
434 1 -0.017423 -0.02835 0.00292254 0 0 0 -0.282366 0.292246 -0.280057 0 0 -0.00160516 10.0345 30.2525 -1.56756 0.0025 
218 1 -0.00400089 -0.0314649 0.00257412 0 0 0 0.36083 -0.202246 0.262464 -0.0239938 -0.0934886 -0.268552 39.0038 58.7603 19.0657 0.0025 
126 1 0.00639742 -0.0320086 0.00254543 0 0 0 -0.690832 -0.144923 0.490388 0.000120371 -0.00880986 -0.0190645 67.941 -69.6726 9.71476 0.0025 
66 1 0.0252158 -0.0300748 0.00416447 0 0 0 0.353332 -0.100784 0.246766 -0.121414 0.0535199 -0.469506 -2.23117 104.317 -78.6934 0.0025 
378 1 -0.0123212 -0.0282922 0.00244236 0 0 0 -0.213756 -0.53646 -0.785804 0.00193322 0.00494234 0.104534 -59.5436 21.7062 -3.79941 0.0025 
134 1 0.0214171 -0.0269598 0.00331012 0 0 0 0.344299 -0.0928321 0.0728485 -0.00548381 0.00453669 -0.00248079 3.5247 -11.1483 55.7686 0.0025 
205 1 0.0365947 -0.0283076 0.00346242 0 0 0 0.0552176 -0.149845 -0.249767 0.247664 -0.138976 -0.0931375 58.356 32.6113 -62.524 0.0025 
10 1 -0.0395595 -0.0251152 0.00265384 0 0 0 0.392023 -0.575837 0.106369 0 0 -0.00160516 -106.624 105.688 -68.2423 0.0025 
365 1 -0.0284583 -0.0221357 0.00304123 0 0 0 0.226437 0.485723 0.364963 0 0 -0.00160516 7.80874 29.8115 73.3253 0.0025 
225 1 -0.00273928 -0.0243008 0.00267915 0 0 0 -0.335356 0.174189 0.774171 0 0 -0.00160516 73.2665 -29.3364 -39.1624 0.0025 
346 1 0.0151711 -0.0249791 0.00295995 0 0 0 -0.1345 -0.252368 -0.20824 -0.0369997 0.150353 -0.224532 -3.46229 -39.2526 -8.27756 0.0025 
448 1 0.028658 -0.0235704 0.00256647 0 0 0 0.45107 -0.115109 0.0231345 0 0 -0.00160516 1.81236 32.4471 -28.9801 0.0025 
339 1 0.0401495 -0.0240397 0.00419671 0 0 0 0.266935 0.127154 0.0436008 0 0 -0.00160516 -15.2788 -22.6875 -79.5014 0.0025 
58 1 -0.0374386 -0.0203112 0.00313144 0 0 0 -0.109242 -0.0170015 -0.371686 -0.165903 -0.0820381 -0.0717903 -7.96627 -69.2864 -5.55388 0.0025 
306 1 -0.0340076 -0.0240544 0.00301713 0 0 0 0.0955934 -0.557566 0.150673 0 0 -0.00160516 -1.48526 -15.7155 -28.6971 0.0025 
32 1 0.00783473 -0.018132 0.00377716 0 0 0 0.160971 0.115189 -0.194619 -0.0486058 0.0298184 0.0112143 18.3342 15.4128 -67.854 0.0025 
159 1 0.0215796 -0.017956 0.0033214 0 0 0 0.221688 0.194992 0.119347 0 0 -0.00160516 -64.5513 -39.8556 67.8408 0.0025 
386 1 0.0357837 -0.0210818 0.00429484 0 0 0 0.0742193 0.0166914 0.456126 0 0 -0.00160516 -18.8466 26.1595 -8.92952 0.0025 
380 1 -0.0165176 -0.0160201 0.00279877 0 0 0 0.035525 0.0416812 0.20909 5.0955e-05 0.000691725 -5.26125e-05 -23.2183 -7.00214 19.9357 0.0025 
321 1 -0.00247301 -0.0168107 0.002651 0 0 0 -0.144235 0.0468606 -0.257125 0.207985 -0.00596314 -0.0176511 37.1793 18.9127 -20.1789 0.0025 
405 1 0.00280124 -0.0160342 0.00260078 0 0 0 0.254185 0.210448 0.316508 0 0 -0.00160516 -35.5878 -21.4411 -9.97483 0.0025 
7 1 0.0121893 -0.015658 0.0026451 0 0 0 -0.173907 0.0236876 -0.321173 -0.0293508 -0.0379975 -0.0380953 32.7352 62.8694 -45.1245 0.0025 
104 1 0.0416977 -0.0166136 0.00289565 0 0 0 0.0864293 -0.01325 0.0806862 0 0 -0.00160516 -19.5244 16.2709 -50.2431 0.0025 
336 1 -0.0267594 -0.0109701 0.0025664 0 0 0 -0.645629 0.283682 0.472027 0 0 -0.00160516 -27.3427 11.0006 -3.79906 0.0025 
158 1 -0.0114443 -0.0134717 0.00287158 0 0 0 -0.0235641 -0.006956 -0.164028 0 0 -0.00160516 9.43474 49.1149 22.4204 0.0025 
22 1 -0.00250415 -0.0108796 0.00309814 0 0 0 0.336321 0.137057 -0.473589 -0.061708 -0.0280925 -0.0641389 51.068 -38.0302 42.6167 0.0025 
142 1 0.0186766 -0.0134481 0.00275307 0 0 0 0.143361 -0.0596617 0.0694259 0 0 -0.00160516 -2.67166 42.7012 17.1404 0.0025 
2 1 0.0243508 -0.0137902 0.0028759 0 0 0 -0.0139295 0.0829266 0.0674232 0 0 -0.00160516 0.530472 -43.2685 -0.118325 0.0025 
136 1 -0.0401517 -0.00772106 0.00456182 0 0 0 -0.303372 0.0729759 0.169907 0.00225292 -0.0983256 -0.0622141 65.5405 -53.8195 -71.1496 0.0025 
331 1 -0.0202599 -0.00777422 0.00270909 0 0 0 -0.350265 0.0960363 0.188771 0 0 -0.00160516 -49.2971 -65.9289 -0.73132 0.0025 
117 1 -0.0089752 -0.00814797 0.00278511 0 0 0 -0.22645 -0.160041 -0.239463 0 0 -0.00160516 -27.3976 -18.829 -37.4661 0.0025 
347 1 0.000871994 -0.00617094 0.00255 0 0 0 -0.0461264 0.185696 0.389649 0.0334899 -0.133224 0.00901501 -53.1691 -5.12914 -30.6213 0.0025 
80 1 0.0167877 -0.00840696 0.00360032 0 0 0 -0.0561554 0.330857 0.00915657 0 0 -0.00160516 20.2159 -24.0462 -37.5691 0.0025 
92 1 0.0263158 -0.00850336 0.00256877 0 0 0 -0.352265 0.0125462 -0.332632 0 0 -0.00160516 85.7446 26.9703 20.9012 0.0025 
122 1 0.0416203 -0.00903662 0.00404199 0 0 0 -0.342179 0.307362 -0.5833 -0.0579423 0.0597182 -0.0623686 -42.6238 7.53783 26.6876 0.0025 
292 1 -0.0455805 -0.0066505 0.00268522 0 0 0 0.61127 -0.0180471 0.0242055 0 0 -0.00160516 -11.8954 -24.5101 -52.7109 0.0025 
342 1 -0.0236864 -0.00372329 0.00261048 0 0 0 0.141644 0.483777 0.115013 0.16334 0.0385958 -0.0877825 -75.2331 -52.1287 33.0835 0.0025 
251 1 -0.0112369 -0.00313818 0.00277242 0 0 0 -0.00815297 0.161476 -0.225081 0 0 -0.00160516 8.75555 10.7581 -32.264 0.0025 
202 1 0.00665487 -0.00436097 0.00361133 0 0 0 -0.106219 0.331718 0.256366 0 0 -0.00160516 -0.158396 11.6656 -17.1969 0.0025 
24 1 0.0122767 -0.00624766 0.00267765 0 0 0 -0.00109181 -0.275386 0.23178 0 0 -0.00160516 2.35748 9.27189 40.5358 0.0025 
408 1 0.0221819 -0.00567118 0.00304096 0 0 0 0.468548 0.408769 0.0202221 0 0 -0.00160516 0.606065 -5.06348 -73.1541 0.0025 
425 1 0.035875 -0.00435954 0.00252614 0 0 0 0.116609 -0.115692 -0.510988 0.129706 0.120727 -0.00153898 -16.6694 -36.6342 -50.1949 0.0025 
1140 1 -0.0455001 -6.70195e-05 0.00335863 0 0 0 -0.64012 0.051346 -0.357294 0 0 -0.00160516 19.6899 16.5655 -84.4606 0.0025 
945 1 -0.0390485 -0.00142908 0.00234755 0 0 0 -0.63756 -0.227248 -0.3511 -0.446214 -0.337419 0.383601 31.686 -47.4078 23.5897 0.0025 
949 1 -0.032272 -0.0056571 0.00245431 0 0 0 0.209548 -0.351723 0.374014 -0.00476507 0.0018441 0.0545358 12.8902 0.0271003 6.2146 0.0025 
789 1 0.0290833 -0.0162775 0.0706115 0 0 0 0 0 -1.04931 0 0 -0.00160516 0 0 0 0.0025 
222 1 -0.000321059 -0.00141637 0.00241663 0 0 0 -0.00952533 0.359735 0.489627 0.0222931 0.145834 -0.241997 -51.2183 -0.713424 2.00815 0.0025 
712 1 -0.024406 -0.00819432 0.0701828 0 0 0 0 0 -1.04931 0 0 -0.00160516 0 0 0 0.0025 
887 1 0.0308515 -0.00721708 0.0693149 0 0 0 0 0 -1.04931 0 0 -0.00160516 0 0 0 0.0025 
1046 1 0.0188383 -0.00126033 0.00266528 0 0 0 -0.0853989 -0.0923594 -0.0314253 0 0 -0.00160516 5.76812 -25.5393 64.6652 0.0025 
574 1 -0.0302064 -0.0171075 0.0707872 0 0 0 0 0 -1.04931 0 0 -0.00160516 0 0 0 0.0025 
305 1 0.0442714 -0.0033208 0.00303952 0 0 0 0.510294 -0.314538 -0.161514 0.00734645 -0.158927 -0.133603 -51.5468 33.1808 27.1231 0.0025 
37 1 -0.0236621 -0.0396956 0.00247406 0 0 0 0.383227 0.158016 0.50577 0.233084 -0.133316 -0.0603374 -59.8562 -3.35678 35.671 0.0025 
410 1 -0.0119137 -0.0445449 0.00479689 0 0 0 0.386873 -0.323292 -0.139944 0.0214791 -0.00960696 -0.0404275 -72.5134 -14.609 -16.2167 0.0025 
28 1 -0.00280291 -0.0387857 0.00857921 0 0 0 -0.299547 0.036943 0.288853 0 0 -0.00160516 83.8201 -12.6792 -9.29594 0.0025 
409 1 0.0188348 -0.0421379 0.00523509 0 0 0 0.0358142 -0.543898 -0.255066 -0.183553 -0.140349 -0.143463 -36.3689 38.8171 0.398628 0.0025 
413 1 -0.0278079 -0.0374633 0.00362387 0 0 0 0.183134 -0.0576582 0.119225 -0.234076 0.133272 0.0770005 -11.9559 -4.90814 38.1862 0.0025 
18 1 -0.00970508 -0.0389861 0.00403136 0 0 0 -0.468078 -0.224374 -0.523523 -0.144359 0.0865985 0.0374101 -31.8812 -16.832 -53.8288 0.0025 
257 1 0.00221722 -0.0384016 0.00850347 0 0 0 -0.710132 -0.021828 0.387534 0.0429658 -0.122079 -0.0133095 44.4605 -35.5584 -17.1331 0.0025 
234 1 0.0127814 -0.0374588 0.00632517 0 0 0 -0.194083 0.56237 0.377864 0 0 -0.00160516 7.7275 16.6116 72.9078 0.0025 
389 1 0.0233326 -0.0409382 0.00367457 0 0 0 0.0775325 0.493545 -0.32505 0.113754 0.0243288 -0.0427143 -2.46679 77.5449 37.7177 0.0025 
244 1 -0.0312773 -0.0333427 0.00345653 0 0 0 -0.368676 0.203398 0.313948 0 0 -0.00160516 -37.9545 66.6828 25.9829 0.0025 
81 1 -0.0177133 -0.0338412 0.00749231 0 0 0 -0.273241 0.0165271 -0.208932 0 0 -0.00160516 -23.7763 9.61737 -49.4211 0.0025 
60 1 0.00676763 -0.035806 0.0087188 0 0 0 0.158796 -0.317887 0.160512 0 0 -0.00160516 -71.6086 42.7862 18.2871 0.0025 
309 1 0.026972 -0.0352474 0.00322305 0 0 0 0.0174841 -0.0754938 0.600716 0 0 -0.00160516 -9.06664 -31.8944 25.6192 0.0025 
78 1 -0.0353082 -0.0291416 0.00498274 0 0 0 0.211903 0.146479 0.0651024 0 0 -0.00160516 -59.5621 -50.1549 -19.1311 0.0025 
113 1 -0.0240867 -0.028859 0.00538236 0 0 0 -0.0933341 -0.12528 0.709559 0 0 -0.00160516 -14.3428 -54.128 42.7755 0.0025 
354 1 -0.0079275 -0.0341882 0.00455551 0 0 0 0.392545 -0.540799 0.143933 0 0 -0.00160516 0.672365 30.6053 -5.77342 0.0025 
440 1 0.018919 -0.0314281 0.00505394 0 0 0 -0.243567 0.0295876 -0.120453 0 0 -0.00160516 55.189 -43.8326 -40.6473 0.0025 
369 1 0.033297 -0.0311381 0.00591131 0 0 0 -0.144809 -0.389485 0.128351 -0.00175453 -0.00139967 -0.000452327 -2.0294 31.9247 -11.1824 0.0025 
294 1 -0.0303689 -0.0281649 0.00430794 0 0 0 0.258259 0.205465 0.0408972 0 0 -0.00160516 -35.8813 35.8747 14.5704 0.0025 
286 1 -0.00729607 -0.0284845 0.00462208 0 0 0 0.307204 -0.292577 0.0199161 -0.109694 0.099092 0.075703 11.6893 -61.6995 13.9776 0.0025 
295 1 0.000578471 -0.0304577 0.00409008 0 0 0 0.245517 -0.46731 -0.322749 0.0863087 0.0213447 0.0314794 -29.0734 -27.2058 -9.5677 0.0025 
30 1 0.00797457 -0.0266818 0.00278041 0 0 0 0.0607237 0.0154082 0.189326 0 0 -0.00160516 26.1419 2.37444 14.0526 0.0025 
195 1 -0.0230655 -0.0234536 0.00350209 0 0 0 -0.247571 0.016511 -0.660675 0 0 -0.00160516 64.0815 -12.23 7.86673 0.0025 
421 1 -0.0181417 -0.0217381 0.00337947 0 0 0 0.241332 -0.0781475 -0.368425 0 0 -0.00160516 -12.5847 -56.5604 53.7193 0.0025 
433 1 -0.0110239 -0.0225445 0.00281183 0 0 0 -0.18982 -0.349424 0.344008 0 0 -0.00160516 88.8392 -55.2076 -2.29645 0.0025 
87 1 0.00374636 -0.0222114 0.00351926 0 0 0 -0.575724 0.149972 -0.219819 0 0 -0.00160516 -11.4499 -67.3 11.7092 0.0025 
424 1 0.0171606 -0.0223339 0.00772196 0 0 0 -0.12456 0.155124 0.371035 0 0 -0.00160516 -23.2213 -39.9171 62.6284 0.0025 
13 1 0.0235891 -0.0222669 0.00525771 0 0 0 -0.116445 -0.109807 -0.0168862 0 0 -0.00160516 96.0334 -40.2803 -6.57136 0.0025 
132 1 0.032465 -0.0261597 0.00478032 0 0 0 -0.480404 0.139018 -0.218818 -0.245909 0.140376 0.0887744 -107.925 -0.309643 0.747524 0.0025 
231 1 -0.0430043 -0.0198123 0.00567694 0 0 0 -0.112222 0.385445 -0.0335186 0 0 -0.00160516 -55.0584 23.2982 -85.8216 0.0025 
404 1 -0.0332322 -0.0183928 0.00467457 0 0 0 0.739316 0.208806 -0.211033 0.165903 0.0820381 0.06858 -45.8998 39.6231 -37.105 0.0025 
15 1 -0.0212925 -0.0177473 0.00355087 0 0 0 -0.0130436 -0.0948908 0.824054 0 0 -0.00160516 36.1978 96.6682 13.9652 0.0025 
52 1 0.00060846 -0.0190473 0.00617049 0 0 0 -0.111696 -0.241557 0.176316 -0.0100567 0.0270951 -0.126515 84.3598 -22.5489 -16.2023 0.0025 
75 1 0.0118906 -0.0206316 0.00245321 0 0 0 0.0572926 -0.160095 -0.770507 0.0462518 -0.0322045 0.0660578 -6.92216 -12.6991 -46.6599 0.0025 
366 1 0.0163792 -0.0184377 0.00272879 0 0 0 -0.00776981 -0.378192 0.454345 0 0 -0.00160516 64.0716 -100.259 34.5778 0.0025 
196 1 -0.045098 -0.014574 0.00416151 0 0 0 -0.635284 0.322552 -0.0578181 0 0 -0.00160516 13.7573 -28.0053 -89.032 0.0025 
293 1 -0.0123504 -0.0179693 0.00534497 0 0 0 0.414084 -0.0474076 -0.35456 0 0 -0.00160516 -48.4 7.78955 -11.9349 0.0025 
40 1 -0.00732374 -0.0168963 0.0031189 0 0 0 -0.187291 -0.0729848 -0.143605 -0.207985 0.00596314 0.0144408 1.58438 7.38203 19.5413 0.0025 
140 1 0.0203604 -0.014528 0.00772086 0 0 0 -0.472565 0.121361 0.3225 0.0221806 -0.0203381 -0.0161882 7.05257 57.103 17.3664 0.0025 
313 1 0.0315881 -0.0164416 0.00348814 0 0 0 0.0581252 0.156319 0.707953 0 0 -0.00160516 -48.8501 15.815 2.69222 0.0025 
439 1 -0.0385674 -0.0156384 0.00637146 0 0 0 -0.132086 -0.264722 0.115886 -0.0273093 -0.0053128 -0.0158971 83.7996 4.35115 26.3435 0.0025 
74 1 -0.0324925 -0.0136091 0.0024704 0 0 0 -0.408827 -0.0330152 0.212018 -0.349807 0.156142 -0.256974 49.4116 -5.49486 73.5825 0.0025 
445 1 -0.0209633 -0.0128026 0.00452345 0 0 0 -0.187627 -0.127722 -0.0462496 0 0 -0.00160516 88.8496 88.9556 -60.7248 0.0025 
240 1 0.00699476 -0.0128515 0.00358939 0 0 0 0.176253 -0.246304 -0.518352 0 0 -0.00160516 75.857 81.0342 -33.9492 0.0025 
233 1 0.0145475 -0.0124694 0.00559712 0 0 0 -0.238899 -0.372301 -0.201651 0.0299444 0.0440045 0.0349252 42.3734 -75.4757 39.1414 0.0025 
338 1 0.0213025 -0.00989643 0.00590048 0 0 0 -0.279271 0.151971 -0.464242 0 0 -0.00160516 28.1964 -72.8012 -74.4183 0.0025 
362 1 0.0377843 -0.0125452 0.00419687 0 0 0 0.783384 -0.101414 -0.183415 0 0 -0.00160516 87.4253 -23.6912 56.8157 0.0025 
322 1 0.0442149 -0.0120618 0.00691937 0 0 0 -0.288699 -0.596275 0.0845407 0.0579423 -0.0597182 0.0591583 48.3464 -97.1183 -214.968 0.0025 
238 1 -0.0354111 -0.00965772 0.00384081 0 0 0 -0.520526 0.235933 0.0709001 0 0 -0.00160516 65.0562 47.2224 -23.2048 0.0025 
157 1 -0.0162818 -0.00827802 0.00670105 0 0 0 -0.233387 0.0477445 0.337294 0 0 -0.00160516 49.6489 20.7588 -46.1015 0.0025 
237 1 0.0321564 -0.0075324 0.00240144 0 0 0 0.217316 0.471862 -0.575483 -0.128274 -0.131476 0.21521 -10.7063 117.297 95.1335 0.0025 
367 1 -0.0278952 -0.00495044 0.00475697 0 0 0 0.0386627 -0.512348 -0.193137 -0.160165 -0.0380139 0.0864437 -1.77024 8.0023 12.6692 0.0025 
328 1 -0.0165979 -0.00272557 0.00636194 0 0 0 0.108804 -0.150279 0.372084 -0.012916 -0.0751969 -0.00949006 -36.633 50.9934 0.277934 0.0025 
246 1 -0.0404578 -0.00347944 0.00702774 0 0 0 -0.599546 0.055028 -0.0466255 -0.355226 0.100966 -0.151525 -27.2944 5.98246 -18.6591 0.0025 
603 1 -0.0219778 -0.0326074 0.0689587 0 0 0 0 0 -1.04931 0 0 -0.00160516 0 0 0 0.0025 
61 1 -0.00564889 -0.00367612 0.00567923 0 0 0 -0.024509 -0.031176 0.0104531 0 0 -0.00160516 -65.8675 -41.0804 15.5171 0.0025 
271 1 -0.0202198 -0.0428462 0.00830982 0 0 0 -0.199631 0.192896 0.269786 -0.0356103 -0.0126295 0.0663469 -22.3509 -42.7605 -14.3455 0.0025 
73 1 -0.00568995 -0.0454368 0.00852744 0 0 0 -0.288807 0.138031 0.652949 0 0 -0.00160516 -109.832 56.4471 -6.69215 0.0025 
189 1 -0.000792335 -0.0437443 0.00783588 0 0 0 0.182073 -0.34893 -0.0783773 0 0 -0.00160516 29.3167 5.46316 80.3517 0.0025 
29 1 0.0113448 -0.0452317 0.00661466 0 0 0 -0.306101 -0.102258 -0.348169 0 0 -0.00160516 0.38833 -60.1487 19.529 0.0025 
243 1 0.0164763 -0.043364 0.0097529 0 0 0 0.315142 0.283822 0.0897351 0 0 -0.00160516 -26.4179 -44.8713 150.365 0.0025 
352 1 -0.0144578 -0.0436108 0.00894336 0 0 0 0.0803189 -0.446488 -0.13934 -0.0214791 0.00960696 0.0372172 62.2671 34.4681 23.0647 0.0025 
4 1 0.00693357 -0.0419892 0.00789885 0 0 0 0.144109 -0.38729 -0.121573 0 0 -0.00160516 104.511 71.2436 -35.0242 0.0025 
411 1 -0.0208313 -0.0382028 0.00664407 0 0 0 0.19579 0.118396 0.0328562 -0.00387173 0.0222202 -0.00885425 3.12812 1.23624 -22.8072 0.0025 
444 1 -0.0132159 -0.0370844 0.00818571 0 0 0 -0.0630419 0.0470368 0.00968883 0.179382 0.0434202 0.246335 -56.8727 2.28559 -18.8901 0.0025 
417 1 -0.00605175 -0.0343837 0.0110631 0 0 0 -0.111431 0.691927 0.131889 0.0183084 0.00817908 -0.0230827 11.3657 -67.6742 87.3475 0.0025 
302 1 0.0204169 -0.039489 0.00899634 0 0 0 0.28354 -0.168891 -0.136813 0.0697989 0.116021 0.181362 23.3358 -8.39854 24.8154 0.0025 
280 1 0.0288807 -0.0371965 0.00873305 0 0 0 0.217906 0.25587 -0.153136 0 0 -0.00160516 -45.8268 -3.92682 45.8236 0.0025 
373 1 0.0116704 -0.0326376 0.00827641 0 0 0 0.153437 0.924087 -0.240176 0 0 -0.00160516 -71.5126 4.22835 5.07584 0.0025 
332 1 0.0222237 -0.0349381 0.00738646 0 0 0 -0.34157 -0.41472 -0.349111 0 0 -0.00160516 1.13141 -65.1139 -82.6018 0.0025 
102 1 -0.0339763 -0.033187 0.00858559 0 0 0 0.469316 -0.173203 -0.252664 0 0 -0.00160516 -22.7928 2.71043 -29.0371 0.0025 
314 1 -0.0286258 -0.0281099 0.0126808 0 0 0 0.666167 0.0657604 -0.161282 0 0 -0.00160516 66.1179 -78.3581 77.3544 0.0025 
266 1 -0.0249565 -0.0323859 0.00980337 0 0 0 0.00783572 -0.508205 0.287836 0 0 -0.00160516 -28.488 3.8152 49.7785 0.0025 
8 1 -0.0143631 -0.0290066 0.00716404 0 0 0 0.339765 -0.0488266 -0.150035 0 0 -0.00160516 -15.23 21.7799 57.0208 0.0025 
167 1 -0.00971265 -0.0308741 0.00848057 0 0 0 0.157908 -0.190905 -0.277045 0 0 -0.00160516 -36.2114 -27.516 -16.0653 0.0025 
70 1 0.000699403 -0.033739 0.00873009 0 0 0 -0.239648 0.104596 -0.339678 -0.26894 -0.0829128 -0.128418 -93.9666 65.7023 -52.1489 0.0025 
53 1 0.0173279 -0.0332997 0.00946894 0 0 0 0.334518 -0.240825 -0.4014 0 0 -0.00160516 59.5465 -82.4805 -24.7727 0.0025 
268 1 0.00660817 -0.0297148 0.00695898 0 0 0 -0.0769932 -0.232963 -0.11989 0.0873155 0.0531502 -0.105112 -68.2525 -10.3903 -2.80049 0.0025 
307 1 0.0158131 -0.0274634 0.00707519 0 0 0 -0.230318 -0.369836 -0.127247 0.0369997 -0.150353 0.221322 49.2457 4.10941 -19.2536 0.0025 
194 1 0.0216688 -0.0284486 0.00886823 0 0 0 0.60342 -0.132618 -0.31861 0 0 -0.00160516 12.6482 14.5151 9.33204 0.0025 
412 1 0.0262247 -0.0306267 0.00880301 0 0 0 0.155589 -0.193272 0.117541 0.126898 -0.0580566 0.467171 26.8621 -6.62821 -74.9401 0.0025 
296 1 -0.0358249 -0.022501 0.00762821 0 0 0 -0.429694 -0.199154 -0.058985 0 0 -0.00160516 3.18315 -75.0114 -6.92381 0.0025 
11 1 -0.0298842 -0.0221496 0.00831122 0 0 0 0.0139317 0.0994702 -0.184027 0 0 -0.00160516 -53.9781 29.7423 -51.9465 0.0025 
394 1 -0.0241793 -0.0270459 0.0100472 0 0 0 -0.0254326 -0.383566 0.0671105 -0.0108698 -0.0160078 -0.016387 20.8396 -51.0941 -27.3339 0.0025 
182 1 -0.0187311 -0.0259505 0.0090681 0 0 0 0.139408 -0.507344 -0.581915 0 0 -0.00160516 23.4301 -54.3628 -26.9472 0.0025 
265 1 -0.0128509 -0.0241729 0.00736345 0 0 0 0.184663 -0.23647 0.100381 0 0 -0.00160516 4.77954 7.80304 59.0041 0.0025 
68 1 0.000468978 -0.0258307 0.00619662 0 0 0 0.47922 -0.479551 -0.489923 0 0 -0.00160516 -36.5686 -35.0138 -46.9677 0.0025 
76 1 0.00614516 -0.0235672 0.00880184 0 0 0 0.0884771 -0.28559 -0.317307 0.0803303 -0.0331527 -0.119693 -23.5951 40.2679 29.3954 0.0025 
262 1 0.0110248 -0.0245799 0.00715633 0 0 0 0.108046 -0.115716 -0.527377 0 0 -0.00160516 -23.4923 -44.4365 -70.8036 0.0025 
303 1 0.0365321 -0.0219537 0.00933173 0 0 0 0.679128 0.036925 0.261871 0 0 -0.00160516 54.0685 -10.9581 32.8554 0.0025 
187 1 -0.0243117 -0.0220388 0.00893981 0 0 0 -0.053632 0.159465 -0.0315382 -0.15604 0.0876809 -0.259011 72.1561 -8.81184 14.1317 0.0025 
163 1 -0.0185766 -0.0200852 0.00815673 0 0 0 0.128032 -0.166932 -0.0498159 0 0 -0.00160516 58.7744 83.3389 25.0492 0.0025 
334 1 -0.00450153 -0.0210836 0.00763023 0 0 0 -0.15622 -0.212722 -0.415574 0 0 -0.00160516 125.677 42.7448 -2.71071 0.0025 
383 1 0.00564245 -0.0186956 0.00826592 0 0 0 -0.0936212 -0.048239 -0.135266 -0.00701099 0.0887204 -0.0153235 27.9995 7.08109 -11.9084 0.0025 
149 1 0.0269699 -0.018819 0.00750277 0 0 0 0.0441796 -0.00556538 -0.427698 0 0 -0.00160516 -26.0839 0.347389 42.2828 0.0025 
121 1 -0.0289431 -0.0153442 0.00516232 0 0 0 -0.128605 -0.268191 -0.0704282 0.351284 -0.156454 0.283961 24.7539 18.4769 37.1444 0.0025 
273 1 0.0103023 -0.0151749 0.00753713 0 0 0 0.293824 0.264778 0.280189 0.142466 0.00980127 -0.181378 18.8013 -76.5934 17.447 0.0025 
337 1 0.0286693 -0.014851 0.0106696 0 0 0 0.0793728 0.437329 0.0595207 0.121276 0.0761201 -0.0411706 61.3211 -62.6646 47.4675 0.0025 
450 1 0.0361375 -0.0146646 0.00853117 0 0 0 0.173093 0.383142 -0.292613 0 0 -0.00160516 93.2458 -54.619 22.6883 0.0025 
282 1 0.0432122 -0.0199003 0.00639818 0 0 0 -0.587186 0.103072 -0.313166 -0.111571 0.050437 0.00445642 -92.7265 -70.1837 65.6138 0.0025 
436 1 -0.0162053 -0.0141642 0.00742909 0 0 0 -0.072544 0.202434 0.629136 -5.0955e-05 -0.000691725 -0.0031577 81.0796 11.1386 14.9163 0.0025 
226 1 -0.00653647 -0.0134579 0.00676673 0 0 0 0.145348 0.169951 -0.44299 0.0779655 0.0140404 -0.0484087 44.3973 19.0525 -23.8589 0.0025 
65 1 0.000627005 -0.00921371 0.00651597 0 0 0 -0.00420616 0.490059 0.0251748 0.061708 0.0280925 0.0609286 41.7739 25.0381 -91.322 0.0025 
379 1 0.0172544 -0.0113994 0.010007 0 0 0 0.102451 0.0344764 0.291589 -0.0221806 0.0203381 0.0129779 -48.7509 -11.384 -12.8534 0.0025 
20 1 0.0279816 -0.0121203 0.00634542 0 0 0 0.165147 -0.0304903 -0.64278 -0.0133816 -0.00508356 -0.00429567 4.58321 -3.52529 46.5351 0.0025 
221 1 -0.0406011 -0.00678848 0.0111852 0 0 0 -0.396005 -0.0885221 0.297372 0 0 -0.00160516 -26.239 -8.22938 -48.6664 0.0025 
312 1 -0.0357453 -0.0100015 0.00936055 0 0 0 -0.0439524 -0.319002 -0.206011 -0.0205009 0.0664281 0.00792497 -16.9588 29.9518 -8.41689 0.0025 
270 1 -0.0293969 -0.010412 0.00804029 0 0 0 0.0560918 -0.146599 -0.24513 0 0 -0.00160516 -34.8418 10.6193 10.8285 0.0025 
449 1 -0.0241845 -0.00991511 0.0070504 0 0 0 0.0607604 -0.335665 -0.0103902 -0.0685164 -0.0653797 -0.0386096 -44.9609 -29.8832 -20.0706 0.0025 
326 1 -0.0109224 -0.00903477 0.00793467 0 0 0 0.257529 0.445966 0.409356 0 0 -0.00160516 46.1219 -70.0296 33.1101 0.0025 
144 1 -0.00362863 -0.00837621 0.0112097 0 0 0 0.000876532 0.157838 0.161043 -0.0308227 0.0438484 -0.0663585 12.2746 -6.53495 23.516 0.0025 
38 1 0.0100658 -0.0087746 0.00795747 0 0 0 -0.183234 -0.236325 -0.451492 0 0 -0.00160516 -10.6255 -7.4233 -73.73 0.0025 
426 1 0.0325706 -0.0105382 0.00745858 0 0 0 0.0562544 -0.372732 -0.453724 0.00681963 -0.00607142 -0.0147953 77.7571 63.3011 -45.1969 0.0025 
47 1 0.0403896 -0.0082687 0.00908059 0 0 0 0.526215 -0.345702 0.216714 -0.00469727 -0.0704944 0.022256 -33.3447 -48.4316 16.5191 0.0025 
105 1 -0.0468372 -0.0063695 0.0091731 0 0 0 0.501434 -0.214235 -0.338815 0 0 -0.00160516 17.2104 -118.568 -78.8542 0.0025 
42 1 -0.0315456 -0.00234475 0.00707066 0 0 0 -0.192461 0.205211 -0.282367 0 0 -0.00160516 -3.07349 -13.0063 -7.84279 0.0025 
49 1 -0.020853 -0.00664926 0.00861801 0 0 0 0.127178 -0.105435 -0.332827 0.0685164 0.0653797 0.0353993 -68.433 -8.96383 6.87352 0.0025 
258 1 -0.0160771 -0.00376394 0.0112342 0 0 0 -0.0606555 -0.0236566 0.0816941 0 0 -0.00160516 17.2489 32.3258 25.7899 0.0025 
21 1 0.00323284 -0.00542135 0.00909015 0 0 0 0.343274 0.0193183 0.00901446 0 0 -0.00160516 -17.0865 7.53281 0.919312 0.0025 
191 1 0.0120157 -0.0033992 0.0070626 0 0 0 -0.385388 0.0476665 0.233916 0 0 -0.00160516 -32.5393 -25.6494 20.5352 0.0025 
254 1 0.0255116 -0.00643034 0.00784326 0 0 0 0.258291 0.0149338 0.221004 0 0 -0.00160516 -71.8709 -30.8181 -24.6212 0.0025 
393 1 0.0347679 -0.00362051 0.00738167 0 0 0 0.142965 0.471143 -0.133653 0 0 -0.00160516 -30.356 -57.4567 -53.4465 0.0025 
1100 1 0.0464282 -0.00730287 0.00825263 0 0 0 0.0977669 0.331503 -0.11882 0 0 -0.00160516 -38.6223 -29.5089 37.7258 0.0025 
381 1 -0.0448984 -0.00140646 0.00825229 0 0 0 -0.123085 0.475526 -0.77972 0.000797233 0.00549765 -0.0203014 -27.7275 -53.5406 9.94624 0.0025 
1282 1 -0.0121878 -0.00138228 0.0088142 0 0 0 -0.217745 0.713046 0.169956 -0.0248018 0.031246 -0.025202 25.4886 28.1598 22.0442 0.0025 
1021 1 -0.00103746 -0.0019068 0.00715192 0 0 0 0.137111 -0.401911 -0.136366 -0.0553984 -0.0200471 0.377107 -20.8153 65.972 -44.6464 0.0025 
287 1 0.00695292 -0.00152495 0.0087305 0 0 0 0.373273 -0.176641 -0.156845 0 0 -0.00160516 42.8164 -21.4237 8.4474 0.0025 
198 1 0.0229967 -0.00140389 0.00926386 0 0 0 0.330917 0.229737 -0.0152152 0 0 -0.00160516 -1.51785 -27.798 -21.1319 0.0025 
368 1 0.0273267 -0.00101403 0.00637032 0 0 0 0.0669885 -0.19945 -0.324605 0 0 -0.00160516 47.3637 5.09487 34.1129 0.0025 
1027 1 0.0404636 -0.00361752 0.00743459 0 0 0 -0.244265 -0.102123 -0.204373 0.00469727 0.0704944 -0.0254663 10.463 -40.9879 -45.4556 0.0025 
247 1 0.0122421 -0.0444992 0.0125297 0 0 0 -0.0134664 -0.35779 0.334354 0 0 -0.00160516 -45.9735 -3.60189 12.824 0.0025 
318 1 -0.0209739 -0.0415438 0.0142032 0 0 0 -0.127223 -0.200843 0.244211 0 0 -0.00160516 9.2898 -19.6805 18.0913 0.0025 
416 1 -0.00121633 -0.0412916 0.0126374 0 0 0 -0.237026 -0.298601 0.0472466 0 0 -0.00160516 -15.5973 11.2404 23.0229 0.0025 
82 1 -0.0265717 -0.0385528 0.0115392 0 0 0 -0.401546 -0.18689 -0.338045 0 0 -0.00160516 41.0505 -30.3416 -93.6094 0.0025 
97 1 0.0174814 -0.0392203 0.0143172 0 0 0 0.339533 -0.544936 -0.458501 0 0 -0.00160516 -73.6928 -40.2086 -7.00622 0.0025 
186 1 0.0249895 -0.0396327 0.0113576 0 0 0 0.826187 -0.519698 0.200111 0.00982538 -0.0432512 -0.0750448 56.6135 9.47859 94.7376 0.0025 
395 1 -0.0153697 -0.033508 0.012054 0 0 0 0.09302 -0.0102672 0.248102 0.180552 -0.0457864 -0.00792189 16.0266 -25.8983 -1.34151 0.0025 
358 1 0.0360798 -0.0292277 0.0160945 0 0 0 -0.0105187 0.303603 -0.140157 -0.0797534 -0.0579678 -0.151779 -91.5191 -4.76752 -39.8225 0.0025 
260 1 -0.037067 -0.0288208 0.01224 0 0 0 0.0138786 0.290756 -0.219885 0 0 -0.00160516 -27.798 24.6756 -21.6371 0.0025 
291 1 -0.00364655 -0.0305417 0.00737975 0 0 0 0.0666349 -0.051754 -0.974908 0.0166872 0.0235453 0.144975 -58.08 30.0104 -52.6573 0.0025 
115 1 0.00397615 -0.030947 0.0109036 0 0 0 0.561063 0.721317 -0.0535048 0.0892871 0.16733 0.117192 -54.4051 -10.1789 -19.7041 0.0025 
62 1 0.026759 -0.0323833 0.0140257 0 0 0 0.127878 -0.334815 0.248342 0 0 -0.00160516 -10.8219 12.3908 -36.8488 0.0025 
320 1 0.00812523 -0.027704 0.0117516 0 0 0 0.302877 0.147152 0.1999 0 0 -0.00160516 10.7328 46.2829 11.8639 0.0025 
179 1 0.0179578 -0.0239737 0.0134796 0 0 0 0.705825 -0.148712 0.135376 0.138669 -0.136558 -0.0471301 1.11766 -17.0705 0.98636 0.0025 
26 1 0.0302883 -0.028191 0.0117265 0 0 0 0.496097 -0.0232955 0.031629 0 0 -0.00160516 -12.1637 21.8561 48.5614 0.0025 
223 1 0.0364072 -0.0285715 0.0110223 0 0 0 -0.244932 -0.439307 -0.145291 0 0 -0.00160516 11.1708 -19.8109 -91.9336 0.0025 
374 1 -0.0103334 -0.0210871 0.0109556 0 0 0 -0.110746 0.116968 -0.209001 -0.170371 -0.206498 -0.0617046 128.091 -43.5801 50.1316 0.0025 
215 1 0.0221696 -0.0232352 0.0104348 0 0 0 -0.139515 -0.500266 -0.588688 0 0 -0.00160516 -22.5778 13.1213 -57.6584 0.0025 
44 1 0.0313651 -0.0221526 0.0103225 0 0 0 -0.168216 -0.0547973 -0.0545015 0.213839 0.0142564 -0.1134 -38.9979 -104.646 30.8259 0.0025 
372 1 -0.0421092 -0.0197379 0.0121332 0 0 0 0.553099 0.302339 0.198665 0 0 -0.00160516 87.8254 -66.1295 10.4591 0.0025 
55 1 -0.0328731 -0.0228846 0.0127218 0 0 0 -0.873684 0.0139488 -0.600494 0 0 -0.00160516 15.6897 73.2957 92.5345 0.0025 
201 1 -0.015849 -0.0213177 0.0121927 0 0 0 -0.326498 -0.0693001 0.219242 0 0 -0.00160516 15.8558 -18.2486 2.89117 0.0025 
12 1 0.0011177 -0.0202884 0.0108959 0 0 0 -0.241173 -0.239905 -0.335645 0.0100567 -0.0270951 0.123305 -74.5086 -42.1295 33.8318 0.0025 
219 1 0.0105368 -0.019754 0.00939266 0 0 0 -0.0814926 0.0221385 -0.122803 0.00451149 -0.0523441 0.0220397 29.9967 97.0353 -65.0351 0.0025 
211 1 -0.0341914 -0.0146105 0.00847957 0 0 0 -0.0893146 0.334151 -0.395946 0.0478103 -0.0611153 0.00315668 -28.0542 -40.7109 -25.1239 0.0025 
382 1 -0.0297148 -0.0167528 0.0112221 0 0 0 -0.142674 -0.557272 -0.0750712 0 0 -0.00160516 19.5355 -5.15245 18.4615 0.0025 
23 1 -0.0105736 -0.0142652 0.00946915 0 0 0 0.175496 -0.088926 0.241866 -0.0779655 -0.0140404 0.0451984 -12.6173 -58.2669 20.3843 0.0025 
353 1 -0.00714686 -0.017552 0.0118961 0 0 0 -0.258327 -0.419645 0.162375 0.170371 0.206498 0.0584943 81.2854 -115.08 -28.4546 0.0025 
304 1 0.0247887 -0.0175654 0.0119106 0 0 0 -0.348554 -0.362623 -0.148697 -0.119479 -0.0780322 0.0372263 61.2199 -20.8748 9.40209 0.0025 
370 1 0.0443544 -0.0161611 0.0129736 0 0 0 0.265675 -0.265079 0.0823667 0 0 -0.00160516 -1.40553 -47.8723 20.216 0.0025 
3 1 -0.0416847 -0.01458 0.0163024 0 0 0 0.495126 -0.0945198 0.704473 -0.00451965 0.0109258 -0.00406169 30.1662 66.5929 15.9372 0.0025 
9 1 -0.0242982 -0.0146194 0.00915135 0 0 0 -0.0962647 0.012763 -0.709843 0 0 -0.00160516 13.6411 -0.0636339 63.0786 0.0025 
36 1 -0.0198279 -0.0113338 0.0129222 0 0 0 -0.624695 0.00215062 -0.509868 0 0 -0.00160516 38.1433 19.004 11.7885 0.0025 
442 1 0.000140176 -0.014079 0.00842198 0 0 0 0.172463 -0.197762 -0.587546 0 0 -0.00160516 -11.9052 -23.5691 -14.3859 0.0025 
401 1 0.00689954 -0.0144181 0.0109364 0 0 0 -0.276244 -0.060618 0.160721 -0.146978 0.0425428 0.154522 -46.6333 -15.9805 32.316 0.0025 
269 1 0.011761 -0.0151056 0.0126568 0 0 0 0.185611 -0.420513 0.255721 0.021407 -0.0667231 -0.0324063 48.6217 -31.7973 -46.9932 0.0025 
166 1 0.0236963 -0.0104537 0.0104283 0 0 0 -0.0743429 -0.172917 0.329616 0.142535 0.216104 -0.189681 21.0096 -38.3923 -11.6902 0.0025 