ITEM: TIMESTEP
18400
ITEM: NUMBER OF ATOMS
1800
ITEM: BOX BOUNDS mm mm mm
-0.05 0.05
-0.05 0.05
0 0.15
ITEM: ATOMS id type x y z ix iy iz vx vy vz fx fy fz omegax omegay omegaz radius 
410 1 -0.00790324 -0.0465016 0.00256257 0 0 0 -0.0550516 0.139169 -0.0842737 -0.0242187 -0.0279317 -0.0137825 6.81649 -4.15455 -4.95358 0.0025 
255 1 -0.00136579 -0.0475291 0.00247587 0 0 0 -0.0176156 0.0351248 -0.0880111 0.00457155 0.0704803 0.0277893 -6.43314 -3.54724 -4.10601 0.0025 
150 1 0.00492436 -0.0472704 0.00251301 0 0 0 -0.0633531 -0.014533 0.087435 -0.00145817 0.00870771 -0.00345009 -0.500631 -10.8362 2.29666 0.0025 
217 1 -0.0152672 -0.0445027 0.00244157 0 0 0 0.024919 -0.0553827 -0.113039 0.00223522 0.00422 0.0939032 14.7697 13.9801 -5.53895 0.0025 
218 1 -0.00412607 -0.0432899 0.00246276 0 0 0 -0.0140453 -0.0128124 -0.0364864 0.0269489 0.0279779 0.04565 -5.19202 -12.225 -5.22798 0.0025 
28 1 0.00170382 -0.0434644 0.00248409 0 0 0 -0.0292935 0.0555631 -0.0750215 0.00313609 -0.00543831 0.0132589 -5.77979 5.4355 -0.353991 0.0025 
241 1 0.010229 -0.046351 0.00248046 0 0 0 -0.0725358 -0.00245055 -0.0884799 0.000917447 0.000302033 0.0177125 -8.64637 0.130415 -3.76178 0.0025 
279 1 0.016299 -0.0445318 0.00250697 0 0 0 0.0972091 -0.00962245 -0.0227967 0 0 -0.00160516 1.30349 0.791906 -3.30259 0.0025 
413 1 -0.0263382 -0.0395488 0.00247728 0 0 0 0.0211963 0.0185121 -0.00448055 0.00423686 0.00764435 0.019173 -1.42668 7.64609 0.0134995 0.0025 
37 1 -0.0220119 -0.0420492 0.00248839 0 0 0 -0.188108 0.0595184 0.0350262 -0.024178 -0.0200895 0.000490417 -2.00065 -6.74609 13.9755 0.0025 
103 1 -0.0176979 -0.0395987 0.00252282 0 0 0 0.0189895 0.0253507 -0.0746399 0.00186629 0.00527407 0.00110105 1.35874 1.98761 -10.5587 0.0025 
18 1 -0.0107883 -0.0420542 0.00250556 0 0 0 -0.00916677 -0.0751702 -0.00215325 -6.10938e-05 -0.0199486 -0.0223939 -5.97362 -7.99094 15.8853 0.0025 
141 1 0.0066479 -0.0426002 0.00254422 0 0 0 0.0913914 0.00728377 0.0409786 -0.00123089 0.00937738 -0.00927799 -3.83684 -3.95927 -10.5418 0.0025 
230 1 0.0121683 -0.0416587 0.00247994 0 0 0 0.0757083 -0.0494212 0.00765102 -0.00898717 -0.0127255 0.000256534 -11.1559 5.16118 0.673567 0.0025 
409 1 0.0210131 -0.0423799 0.00252065 0 0 0 -0.0187782 0.0236616 0.172715 0.029488 0.0167253 -0.109691 1.34119 -26.1761 -7.71768 0.0025 
389 1 0.0255089 -0.0400863 0.00246364 0 0 0 0.0300648 0.026592 0.0529809 -0.00786831 0.0029185 0.0425735 2.18004 -8.53546 -10.2204 0.0025 
95 1 -0.0220184 -0.0370504 0.00260851 0 0 0 -0.028437 0.0445713 0.00691948 -0.00726618 -0.00222163 -0.0111051 -2.00808 -5.64879 -8.6846 0.0025 
438 1 -0.0131942 -0.0375066 0.00253823 0 0 0 0.0269758 -0.0196352 0.0489333 0.0358336 -0.00399726 -0.00389018 -3.51518 -9.87789 -5.50579 0.0025 
167 1 -0.00681453 -0.039073 0.00249233 0 0 0 -0.0291046 -0.000616443 0.00696291 -0.00391188 -0.0025916 -0.0486337 4.18849 1.72304 -0.94916 0.0025 
85 1 -0.00107947 -0.0393348 0.00256564 0 0 0 0.0600024 0.0440108 -0.00669706 -0.00650292 0.0120578 -0.00191948 10.1383 6.46923 -11.3509 0.0025 
268 1 0.00586351 -0.0375704 0.00249709 0 0 0 -0.126265 -0.00299062 0.00585256 0.00096359 -0.000506573 -0.000593683 -6.15708 12.6174 5.44701 0.0025 
126 1 0.0108226 -0.0368387 0.00259813 0 0 0 0.103441 0.0396144 -0.0665996 0 0 -0.00160516 5.41471 -0.343917 -5.54779 0.0025 
101 1 0.0173229 -0.0388736 0.00270874 0 0 0 0.0204606 0.0681776 0.0971927 0.00659635 -0.000430164 -0.00851245 -10.4568 21.4881 -1.69267 0.0025 
309 1 0.0299773 -0.0365964 0.0027216 0 0 0 0.0946967 -0.0109499 0.0201702 -3.96002e-05 0.000170396 -0.00162202 -7.28306 -5.79877 17.2008 0.0025 
10 1 -0.0334517 -0.033707 0.00252118 0 0 0 0.031688 -0.0453932 -0.0521071 0 0 -0.00160516 -9.07488 -1.24698 0.0901749 0.0025 
244 1 -0.0286146 -0.0351026 0.00256445 0 0 0 0.059604 -0.00249647 0.0131165 -0.000644272 0.00130297 -0.00164952 6.64746 -9.23144 -11.6584 0.0025 
182 1 -0.0207192 -0.0321037 0.00246648 0 0 0 0.03382 0.00465491 -0.0352996 -0.00157337 -0.00307562 0.0396058 5.68414 11.5799 0.384383 0.0025 
81 1 -0.0154566 -0.0330764 0.00248878 0 0 0 0.116721 0.0150488 -0.0812441 -0.0264154 0.0202709 -0.00804516 -9.4938 0.943109 -16.973 0.0025 
291 1 -0.00862185 -0.0343945 0.00246501 0 0 0 0.0506819 -0.0878524 0.0587377 0.0103687 -0.000782349 0.0268534 25.5533 5.01945 -11.7485 0.0025 
295 1 -0.00359572 -0.0350101 0.0024823 0 0 0 0.0413354 -0.0546107 -0.00207123 -0.000755666 -1.89384e-05 0.0128644 -0.387487 6.58026 -7.40028 0.0025 
68 1 0.00162422 -0.0349223 0.00245604 0 0 0 0.0670234 -0.0299991 0.0597934 0.0141266 -0.0189868 0.0272975 -16.0174 9.65055 6.15965 0.0025 
234 1 0.0150666 -0.0341797 0.00259566 0 0 0 0.0477712 -0.0641096 -0.152852 0.00384988 -0.000380333 -0.0067366 -6.33302 -4.08301 22.2395 0.0025 
213 1 0.0200659 -0.0343065 0.00251339 0 0 0 0.0812228 0.0650932 -0.0932844 0.0166097 0.00555439 -0.040176 -3.01641 -6.77156 5.6536 0.0025 
134 1 0.0250408 -0.0351193 0.002575 0 0 0 0.00128705 -0.109391 0.0563294 -0.000267604 0.00541046 -0.00136129 14.9957 5.15656 1.36302 0.0025 
369 1 0.0337766 -0.033304 0.00265094 0 0 0 -0.0614715 0.0678178 -0.0497959 0 0 -0.00160516 -1.08598 13.6509 -6.25356 0.0025 
306 1 -0.0369078 -0.0299067 0.00247933 0 0 0 -0.0179897 -0.0183035 -0.016159 0.000603022 -0.00367463 0.0181528 10.1542 13.465 -1.81333 0.0025 
266 1 -0.0316817 -0.0290309 0.00248338 0 0 0 0.0513957 -0.0179245 0.0240913 0.00128161 -0.00219902 0.0119953 4.60832 6.41846 3.16309 0.0025 
113 1 -0.0256562 -0.0310523 0.00247163 0 0 0 -0.0617237 0.0559463 0.0285361 -0.00256472 -0.00800662 0.0238967 -10.6799 -3.12783 -19.9485 0.0025 
265 1 -0.0112904 -0.0299667 0.00248123 0 0 0 0.0506419 0.00666318 -0.0266381 -0.00331457 -0.00130721 0.000415169 -5.35044 21.026 -0.141091 0.0025 
115 1 -0.00570768 -0.0302355 0.00255098 0 0 0 -0.0363003 0.0258004 0.0633714 -0.00061255 -0.0010249 -0.00169637 8.8787 9.5809 10.0703 0.0025 
225 1 0.000185204 -0.0301777 0.00246347 0 0 0 -0.0146885 0.0402714 -0.0602306 -0.00731273 0.0277172 0.0313488 -6.13594 0.725501 6.47074 0.0025 
30 1 0.00538221 -0.0300879 0.00250464 0 0 0 -8.03832e-05 0.064862 0.0915723 0 0 -0.00160516 -16.5417 3.76102 -3.03495 0.0025 
220 1 0.0109137 -0.0313346 0.00262448 0 0 0 0.00119645 -0.0683351 0.0369663 0.023211 0.0149473 -0.0230804 16.4158 4.20728 -10.2611 0.0025 
440 1 0.0183607 -0.0296102 0.00251799 0 0 0 -0.064732 0.06965 0.0582073 0.00316283 0.0015099 -0.0116211 6.11548 -13.8381 0.636971 0.0025 
13 1 0.0235359 -0.0299941 0.00259088 0 0 0 0.0587724 -0.104097 0.012637 -0.00919124 -0.00397008 -0.0177811 11.6816 -6.79277 -22.385 0.0025 
66 1 0.0288086 -0.0317422 0.00248795 0 0 0 0.00379729 0.0717769 -0.0509329 -4.12879e-05 -0.000632878 0.00780175 8.76828 -5.04324 15.0362 0.0025 
205 1 0.0379711 -0.028539 0.00255233 0 0 0 0.0130263 0.0286089 -0.018805 4.12473e-06 -2.79011e-06 -0.00160518 -17.2966 3.43179 -14.0643 0.0025 
296 1 -0.0400013 -0.0256399 0.00250329 0 0 0 0.00269173 -0.00379123 -0.011476 0.00868461 0.00522953 -0.00118542 7.6024 1.66268 -6.71235 0.0025 
365 1 -0.034994 -0.0253148 0.00285554 0 0 0 0.0363165 0.0258898 0.0424264 -0.000441928 0.00678443 -0.00118494 -0.720397 -2.63401 7.75622 0.0025 
195 1 -0.0274694 -0.0263399 0.00251141 0 0 0 0.02775 0.0370784 -0.029462 0.000199878 0.000119662 -0.00159437 -0.473373 1.11928 8.24367 0.0025 
394 1 -0.0223112 -0.0273614 0.00251917 0 0 0 0.0704154 -0.00582106 0.0211727 0.00542048 0.00217121 -0.0126868 11.5033 3.99522 7.26818 0.0025 
434 1 -0.0173383 -0.0284264 0.00253199 0 0 0 0.00172356 -0.0144083 0.0094699 -0.00334186 -0.0154665 -0.0249073 -4.70043 4.73526 -2.0763 0.0025 
374 1 -0.013564 -0.0251289 0.00247757 0 0 0 0.0308659 -0.0271435 -0.0126235 -0.000858105 0.000719876 0.0207963 3.80931 3.94234 -7.40081 0.0025 
286 1 -0.00809396 -0.0257712 0.00262176 0 0 0 -0.0654054 0.00330549 -0.0223391 0 0 -0.00160516 -2.31477 -12.6467 -6.84777 0.0025 
164 1 -0.00309215 -0.0259797 0.00269005 0 0 0 -0.0611415 -0.0738793 -0.101344 0.00061255 0.0010249 -0.00151395 8.84418 1.46415 -3.08362 0.0025 
76 1 0.00256815 -0.0257482 0.00308103 0 0 0 0.0228721 0.0452594 -0.0837108 0.0138258 -0.0199539 -0.0424535 -10.845 -9.67613 -11.2098 0.0025 
32 1 0.00910989 -0.02598 0.00256954 0 0 0 0.0416197 -0.0880257 0.0179656 -0.00410566 0.000847001 -0.00163398 17.5079 10.7013 5.36527 0.0025 
346 1 0.0139409 -0.0272281 0.00256606 0 0 0 0.135562 -0.131709 -0.049015 0.00251725 -0.0018121 -0.00160576 1.19418 7.91358 14.0374 0.0025 
304 1 0.0277456 -0.0267868 0.00249289 0 0 0 0.11536 -0.0104131 -0.00588896 -1.89353e-05 -0.000104065 0.00241805 9.51455 2.4934 -1.71468 0.0025 
285 1 0.0327049 -0.02838 0.00258123 0 0 0 0.0756575 -0.0959792 -0.000815665 0.0106293 0.0094111 -0.0231672 -0.707086 8.52731 -12.9598 0.0025 
15 1 -0.0237902 -0.0225281 0.00250373 0 0 0 0.0399927 -0.0248234 0.041087 0.000427626 -0.00120628 -0.00160963 -1.75857 -10.8138 -7.30334 0.0025 
421 1 -0.0183807 -0.0228774 0.00247068 0 0 0 -0.0215686 0.00846355 0.0735949 0.00154309 -0.000430602 0.0304357 -1.40995 -1.52466 12.8057 0.0025 
334 1 -0.00532645 -0.0214365 0.00249059 0 0 0 -0.0341761 0.00998275 -0.0387964 0.0147894 -0.000352631 -0.0196336 1.97538 8.09365 -8.67353 0.0025 
87 1 -0.000278286 -0.0215893 0.00250105 0 0 0 0.0238928 -0.0550699 -0.0291056 -0.00415835 -0.000130415 -0.00184218 5.81745 4.81314 8.28295 0.0025 
75 1 0.0139052 -0.0217365 0.00248293 0 0 0 -0.00775867 -0.0700638 -0.0775956 -0.0158276 0.0124419 0.013543 12.9343 -7.31891 11.0985 0.0025 
424 1 0.0180809 -0.024434 0.00257104 0 0 0 0.0551588 -0.0136556 -0.100991 0.0193082 -0.0117332 -0.000904126 0.636734 0.953472 -3.10964 0.0025 
307 1 0.0230785 -0.0250001 0.00251644 0 0 0 0.00274468 -0.0755003 0.0261439 -0.000123237 5.82048e-06 -0.00169665 6.80256 13.7771 -1.66686 0.0025 
132 1 0.035105 -0.0238606 0.00266621 0 0 0 -0.0158415 -0.0398275 -0.0389944 0 0 -0.00160516 8.84942 -10.4766 -5.074 0.0025 
44 1 0.0409779 -0.0237198 0.00259748 0 0 0 0.179737 0.0883878 -0.0572321 0.0145898 0.00358479 -0.0269425 -18.599 -3.08684 3.44117 0.0025 
58 1 -0.0426201 -0.0208891 0.00249132 0 0 0 0.0354087 -0.0457786 -0.0277446 -6.75885e-05 0.000275165 0.00406173 3.45898 10.5315 -2.80496 0.0025 
404 1 -0.0376011 -0.0210247 0.00252826 0 0 0 0.0252338 -0.0180806 0.0518226 -0.0340356 -0.0247306 -0.0519348 -10.0852 17.2155 -12.2962 0.0025 
187 1 -0.0286066 -0.0211917 0.00247089 0 0 0 0.0247032 -0.0266927 -0.0712735 0.00104471 -0.0248436 -0.00985942 5.02621 -6.16115 1.50001 0.0025 
380 1 -0.019847 -0.0180187 0.0024733 0 0 0 -0.0554465 -0.0121613 -0.00711905 0.00144367 0.000103992 0.0273431 3.36596 -1.13368 2.54416 0.0025 
293 1 -0.0149155 -0.0191774 0.00263638 0 0 0 0.0717083 -0.0785567 -0.0134498 0 0 -0.00160516 5.20635 -7.13333 -12.4339 0.0025 
433 1 -0.010327 -0.0212822 0.00253535 0 0 0 -0.0306347 -0.0271727 -0.00425821 0.00634888 0.00228857 -0.01052 -8.4289 7.43443 10.784 0.0025 
383 1 0.00468577 -0.0211875 0.00282446 0 0 0 0.0112025 0.0369254 0.00716353 0.00819792 -0.00696709 -0.00703591 2.70117 -14.2452 -0.124914 0.0025 
273 1 0.00950123 -0.0193838 0.00251389 0 0 0 0.00304218 0.0407829 -0.0428514 0.0151737 -0.00779467 -0.0315035 -5.62464 9.16323 -5.09712 0.0025 
366 1 0.0188124 -0.0194762 0.00246403 0 0 0 0.0979074 -0.0067349 0.123706 -0.0376258 0.0407123 -0.00967755 11.5366 13.3991 -1.56644 0.0025 
159 1 0.0251485 -0.0190864 0.00256973 0 0 0 0.0613676 -0.00717186 0.0737698 0 0 -0.00160516 -4.52853 2.59665 6.99995 0.0025 
149 1 0.0302392 -0.0212226 0.00249704 0 0 0 0.101702 -0.0342963 -0.025465 -6.44135e-05 3.85168e-06 -0.000314586 11.3347 0.70503 -2.89425 0.0025 
448 1 0.0379942 -0.0197335 0.00252494 0 0 0 -0.0329843 -0.0323899 0.00335293 -0.00674492 -0.00373723 -0.0115204 -1.65224 -5.6512 1.81397 0.0025 
339 1 0.0433477 -0.0192615 0.00243157 0 0 0 0.0103656 -0.0161997 0.0993668 -0.000318477 0.000315435 0.114501 8.36894 4.08227 -0.0344952 0.0025 
231 1 -0.0445617 -0.0162365 0.00250632 0 0 0 0.0740181 -0.0477395 -0.00650047 0.000322532 -0.00118726 -0.00365653 -7.97063 1.01796 12.8567 0.0025 
121 1 -0.03956 -0.0163508 0.00266063 0 0 0 -0.0246789 0.0064493 -0.0895233 -0.00765509 0.000215903 -0.00101641 16.075 3.06374 -3.85482 0.0025 
9 1 -0.0345815 -0.0165706 0.00251424 0 0 0 0.0383921 -0.017025 -0.00408879 0.00587572 -0.00728781 -0.00210473 5.07944 -3.46813 7.03864 0.0025 
445 1 -0.0296297 -0.0156745 0.00275285 0 0 0 0.0354329 -0.0220157 -0.0174985 0.0131103 0.00132988 -0.0265951 10.8877 2.96245 1.16948 0.0025 
6 1 -0.0250321 -0.0176886 0.00253603 0 0 0 -0.0707333 -0.0867465 0.0606985 -0.0212779 -0.0268779 -0.00991065 -0.791642 9.17827 1.07498 0.0025 
40 1 -0.00648988 -0.0165761 0.00253018 0 0 0 0.0354696 -0.0718547 -0.0441275 0.00933464 -0.021278 -0.057941 -6.60887 5.00742 -0.32791 0.0025 
52 1 -0.00152085 -0.0166878 0.00252891 0 0 0 0.026021 0.00107554 -0.0619643 0.024011 -0.00170541 -0.00131628 8.76059 -0.194471 4.16758 0.0025 
405 1 0.005584 -0.0162802 0.00253812 0 0 0 0.064181 -0.0484676 -0.00480694 -0.00352442 -0.00383545 -0.0158104 14.8278 2.67882 -6.30405 0.0025 
379 1 0.0145854 -0.0165934 0.00248096 0 0 0 0.0874448 -0.131936 -0.00983995 0.000302614 0.000429426 0.0158672 6.59055 13.4145 -21.3303 0.0025 
20 1 0.028863 -0.0156715 0.00249574 0 0 0 -0.121767 0.0155595 -0.0685906 -0.0249064 0.00991303 0.00219875 -2.53207 -0.305244 2.9796 0.0025 
183 1 0.0335177 -0.0174034 0.00248061 0 0 0 0.0853234 0.030126 0.0491077 -0.0038834 -0.0142604 -0.0213482 1.37772 -11.9983 15.0614 0.0025 
386 1 0.0401734 -0.0152486 0.00257103 0 0 0 0.0224501 -0.0325119 -0.0562973 0.0679576 -0.0358738 -0.0163018 3.82824 1.87606 -5.64736 0.0025 
104 1 0.0451831 -0.014623 0.00246937 0 0 0 0.0173733 -0.0133329 -0.00376102 0.0019147 -0.0018041 0.024439 3.58867 0.769825 2.25357 0.0025 
196 1 -0.0460284 -0.011428 0.00254447 0 0 0 -0.0167999 0.0433963 -0.0150969 0 0 -0.00160516 16.8528 0.527733 -2.20734 0.0025 
74 1 -0.039031 -0.0112497 0.0024849 0 0 0 -0.121264 -0.0597506 -0.0816133 0.0173847 -0.00997844 -0.00132143 4.27467 3.74152 1.95178 0.0025 
449 1 -0.0331462 -0.0117947 0.00255664 0 0 0 0.0733069 -0.0873807 0.0160257 0.00177938 0.00707191 -0.00169434 -5.55484 3.04617 -10.0948 0.0025 
36 1 -0.0270095 -0.0113436 0.00248187 0 0 0 0.00207224 -0.0294776 -0.00918216 0.0407302 -0.0156652 -0.0332678 0.473536 1.09764 -5.57699 0.0025 
331 1 -0.0224719 -0.0134394 0.00253535 0 0 0 -0.00844204 -0.0941863 -0.000514564 -0.0071446 0.0170839 -0.0124226 -3.48453 -14.1822 -0.129347 0.0025 
326 1 -0.0160522 -0.0139918 0.00253604 0 0 0 -0.0450016 0.0940381 -0.0241157 0 0 -0.00160516 -12.0124 17.3704 -20.9055 0.0025 
158 1 -0.0110382 -0.0137931 0.0024893 0 0 0 0.0244925 -0.0543503 -0.032887 -0.0140009 -0.016731 -0.00190457 4.84569 -2.37182 6.62524 0.0025 
226 1 -0.00386805 -0.011735 0.00247867 0 0 0 0.0210552 -0.0115322 -0.115284 -0.00111329 -1.09287e-05 0.0206618 4.84955 -13.8226 -6.57085 0.0025 
22 1 0.00139444 -0.0124791 0.00267814 0 0 0 0.0476565 0.0155623 0.0208713 -0.00155239 -4.82738e-05 -0.00260318 20.9028 1.48458 -17.9301 0.0025 
7 1 0.01022 -0.0141672 0.00247936 0 0 0 -0.0547513 0.0173925 0.00671413 0.00031553 -0.00570244 0.00419173 -6.91602 -0.230919 -3.95592 0.0025 
142 1 0.0189431 -0.0134424 0.00249923 0 0 0 -0.0481327 -0.113609 0.0257033 0.0099668 -0.0028525 -0.00625616 4.03229 3.32696 -14.7005 0.0025 
2 1 0.0239872 -0.0140816 0.00249152 0 0 0 0.0197098 0.034306 0.00361032 -0.0033395 -0.00170203 -0.0309096 -8.15815 1.845 -5.79731 0.0025 
313 1 0.0358322 -0.0128929 0.00247092 0 0 0 0.140276 0.0038826 -0.161944 -0.0637585 0.0313946 0.0351125 -4.01536 -4.69504 1.70832 0.0025 
238 1 -0.042131 -0.0073479 0.00253202 0 0 0 -0.0130201 -0.000737392 0.0345369 -0.00588164 0.0108794 -0.00624703 -6.27792 1.41498 -4.91473 0.0025 
949 1 -0.0358043 -0.0074276 0.00248228 0 0 0 0.0396305 -0.0383166 0.0575951 0.0129501 -0.00891801 -0.00324874 14.75 4.5573 -8.1266 0.0025 
367 1 -0.0301079 -0.00743286 0.00250503 0 0 0 0.046915 -0.0553938 0.0531586 0.00416533 -0.0073813 -0.00269068 -10.3597 -7.42229 -13.2836 0.0025 
49 1 -0.0236889 -0.00762101 0.00252784 0 0 0 -0.0798823 -0.0227416 0.0312157 -0.0173115 0.014806 -0.00251232 -0.35135 2.75918 -2.11276 0.0025 
252 1 -0.0191818 -0.00971406 0.0024933 0 0 0 -0.0216701 0.0416756 -0.0203925 0.037305 0.0055175 0.0014244 -15.3749 -4.64145 12.7041 0.0025 
117 1 -0.0137554 -0.00946109 0.00258581 0 0 0 -0.11535 0.0131786 -0.0538701 -0.0138413 -0.0159356 -0.0198334 -9.04569 25.2779 -18.4556 0.0025 
190 1 -0.00843979 -0.00956014 0.00261312 0 0 0 0.0884092 -0.105824 -0.00199977 0.00834319 0.0381857 -0.013739 6.92322 -0.92454 -3.04113 0.0025 
347 1 0.00203815 -0.00743802 0.00250968 0 0 0 0.0295003 -0.0706137 -0.00636683 0.00583639 -0.0329957 -0.0421341 6.23905 1.42581 -8.74425 0.0025 
240 1 0.00689096 -0.0085618 0.00249485 0 0 0 -0.0796206 0.0394921 -0.0266127 0.0127575 -0.00356088 0.00133402 -11.2853 -4.46039 8.83961 0.0025 
24 1 0.0119065 -0.00824192 0.00246944 0 0 0 0.0602123 -0.0742306 -0.0406551 -0.00100833 0.00148895 0.0343599 -1.83896 2.75557 -10.0323 0.0025 
233 1 0.0171686 -0.00813367 0.0025101 0 0 0 0.0859579 0.00162592 0.0466575 -0.00912555 -0.0051053 -0.010965 -1.16481 15.5581 3.92105 0.0025 
338 1 0.0220876 -0.00947172 0.00250414 0 0 0 -0.065855 -0.0657365 -0.0826671 -0.00223238 0.0123571 -0.00773286 5.15305 34.1115 -9.41301 0.0025 
337 1 0.0308293 -0.0103058 0.00270362 0 0 0 0.026707 -0.0136701 -0.0307964 0 0 -0.00160516 -3.8848 14.2341 -4.52115 0.0025 
237 1 0.038277 -0.00754584 0.00250678 0 0 0 -0.0196563 -0.0360909 0.0273285 0.00550872 -0.0130399 -0.0183526 4.04531 2.97003 -4.26171 0.0025 
426 1 0.0422769 -0.0105664 0.00249191 0 0 0 0.00819933 -0.0207009 -0.00883142 0.000204268 -0.0108569 -0.0201324 0.0828837 5.29765 -18.8377 0.0025 
362 1 0.0467673 -0.0083209 0.00250013 0 0 0 0.0250978 0.00159445 0.041307 -0.000668328 0.000123116 -0.00163888 2.43045 1.40925 -4.19803 0.0025 
292 1 -0.0470253 -0.00633636 0.00251053 0 0 0 0.0259772 -0.115783 -0.0176755 -0.000749376 0.000185678 -0.00158444 19.1308 5.66021 8.35364 0.0025 
328 1 -0.0169623 -0.00522636 0.00247386 0 0 0 0.103181 0.0121571 0.0311499 -0.00769242 -0.00287628 -0.0024294 -6.10437 10.0269 -9.91203 0.0025 
61 1 -0.00347449 -0.00652266 0.00247722 0 0 0 -0.0154632 -0.0194524 0.0862882 0.0125844 -0.0117291 -0.0123095 6.62438 -4.64401 4.12361 0.0025 
202 1 0.00761869 -0.00363668 0.00295722 0 0 0 -0.0732354 -0.0895883 0.0686965 -0.00889198 -0.0118403 -0.014431 -28.7325 17.3036 -13.6982 0.0025 
1046 1 0.0285971 -0.00382944 0.00252892 0 0 0 0.0186035 0.0137113 -0.0846324 -0.0395628 -0.0460138 -0.00309415 8.43141 0.692289 1.20149 0.0025 
92 1 0.0334994 -0.00597092 0.00246286 0 0 0 -0.0147353 -0.0185487 -0.0697508 0.000136504 0.00242103 0.0468923 -1.14826 -5.44616 -8.64948 0.0025 
1140 1 -0.0474375 -0.000520487 0.00249563 0 0 0 0.00959253 -0.0597747 0.0168573 -1.54423e-05 8.59241e-05 0.000140856 1.32161 -0.222966 4.38423 0.0025 
945 1 -0.0427658 -0.00239004 0.00249832 0 0 0 0.0315117 0.03585 -0.0253663 0.000237144 -0.00124648 -0.00538994 3.9078 3.56083 2.56027 0.0025 
1341 1 -0.0377649 -0.00206089 0.00246915 0 0 0 0.0506782 -0.118026 -0.00317537 -0.00734236 -0.00501819 0.0334235 8.06194 7.11921 4.87964 0.0025 
98 1 -0.0328407 -0.00327194 0.00256782 0 0 0 -0.00819776 0.0256823 0.0200126 -0.00748223 0.0116911 -0.000755212 -3.76773 8.65118 10.7784 0.0025 
342 1 -0.0265179 -0.00350263 0.00253021 0 0 0 -0.0515116 0.0418564 0.0296677 0.00568329 -0.0019492 -0.00964785 -0.63222 0.788231 -9.6496 0.0025 
1337 1 -0.0213997 -0.00289335 0.00249107 0 0 0 0.0318636 -0.035779 -0.0713792 0.0120238 -0.0154432 0.00555464 -5.09617 -1.57676 -7.35536 0.0025 
278 1 -0.0123384 -0.00327203 0.00248469 0 0 0 -0.0276383 -0.0258293 -0.00198718 -0.00421622 -0.0123967 0.0106565 5.97641 12.0335 1.68189 0.0025 
248 1 -0.00731514 -0.00334902 0.00261288 0 0 0 -0.0621151 -0.00405343 0.0342115 -0.00684799 0.005889 -0.000943197 19.3757 7.59169 -14.6605 0.0025 
250 1 -0.00235993 -0.000860856 0.00253636 0 0 0 0.0656712 0.0358955 -0.0420645 0.00950024 0.00486867 -0.0228032 -5.06702 9.83101 20.5527 0.0025 
21 1 0.00279092 -0.0019111 0.00257064 0 0 0 0.00368316 -0.0207403 0.0734356 0 0 -0.00160516 8.81216 -1.07515 13.7053 0.0025 
154 1 0.0126255 -0.00316821 0.00254484 0 0 0 0.0106044 0.0166134 -0.0292323 -0.0115937 0.0162435 -0.025126 -1.18615 -11.512 9.91467 0.0025 
80 1 0.0176214 -0.00305528 0.00250292 0 0 0 -0.0369643 0.0343256 -0.0046252 -0.0038754 -0.0382377 -0.00143393 6.04818 -8.14371 -3.33552 0.0025 
971 1 0.0225134 -0.00166227 0.00249451 0 0 0 -0.00631367 0.0955302 -0.0418434 -0.000707968 -0.00311127 0.00165315 -7.82555 -9.40213 -3.02272 0.0025 
368 1 0.0363953 -0.00178551 0.00248557 0 0 0 0.0288935 0.042228 -0.0135561 -0.0029841 -0.00605796 0.00968611 11.5498 2.43947 15.0195 0.0025 
425 1 0.0411966 -0.00344801 0.00264042 0 0 0 -0.0634929 -0.0680104 -0.17388 0 0 -0.00160516 -0.219723 -0.0785615 12.526 0.0025 
305 1 0.0464223 -0.00331109 0.00248776 0 0 0 0.0567777 0.000563592 0.0112687 -0.000440437 -1.29648e-05 0.00720739 0.0904867 12.0162 4.12007 0.0025 
73 1 -0.00467138 -0.0472099 0.00629205 0 0 0 -0.00153301 0.0143399 -0.0314134 0.00487483 -0.00239102 -0.00577363 2.40954 -15.7587 -7.94025 0.0025 
411 1 -0.0186803 -0.0436596 0.00604604 0 0 0 -0.0146918 0.00938085 0.00266942 -0.0145235 0.00372936 -0.0152728 13.2339 13.5264 2.7618 0.0025 
352 1 -0.0116834 -0.0460234 0.00577326 0 0 0 0.136215 -0.0366179 -0.0743954 -0.000599331 -0.00229351 -0.00406771 1.42215 -3.34089 -4.95611 0.0025 
444 1 -0.00762606 -0.0429555 0.00627123 0 0 0 -0.0762791 0.0191466 0.023404 0.00130186 -0.000389199 -0.00264007 2.16476 -16.1719 0.595008 0.0025 
82 1 -0.0241457 -0.0408622 0.00684121 0 0 0 0.013126 -0.0659049 -0.0171088 0.00760445 -0.00537768 -0.0156149 -5.80396 14.5959 3.59678 0.0025 
8 1 -0.0142575 -0.0410414 0.00591 0 0 0 0.0454033 0.0100747 -0.0353589 -0.0224187 0.00472609 0.0196107 1.03937 -6.34951 1.20426 0.0025 
354 1 -0.0012296 -0.0425018 0.00666873 0 0 0 -0.0424331 0.054764 0.0258382 0 0 -0.00160516 -8.9758 1.77544 20.7042 0.0025 
377 1 0.00405512 -0.0425253 0.00691566 0 0 0 0.0150694 0.0657975 0.0289972 -0.00171028 -0.00795257 -0.00367124 -2.85746 -5.5344 2.8921 0.0025 
60 1 0.00921197 -0.0407971 0.0064188 0 0 0 0.0127106 -0.120255 -0.0062757 0.0297602 -0.0144468 -0.000634077 8.16538 0.406361 8.00451 0.0025 
102 1 -0.0284908 -0.0379938 0.00670602 0 0 0 0.0890155 0.0262247 0.0275612 -0.00655423 -0.00419411 0.00119815 -10.6512 -17.4649 -10.0426 0.0025 
16 1 -0.0183158 -0.0357161 0.0056583 0 0 0 -0.0221693 0.0275061 -0.0817074 0.0190512 0.00577982 -0.00489846 -13.4502 -2.50198 -9.03148 0.0025 
301 1 -0.0100218 -0.0383673 0.00636993 0 0 0 -0.111753 -0.0180883 0.0271565 0 0 -0.00160516 -6.6006 12.8612 -22.9076 0.0025 
197 1 -0.00443674 -0.0377377 0.00661791 0 0 0 0.0328002 -0.0396269 -0.0593045 0.0281939 0.0149376 0.0490389 -10.0526 2.79833 2.9786 0.0025 
70 1 0.000555217 -0.0370998 0.00678567 0 0 0 0.0299631 0.0035731 0.0689195 -0.0161802 -0.00472745 0.00243077 6.52521 -6.25494 -6.65089 0.0025 
388 1 0.0138238 -0.0388856 0.00625889 0 0 0 0.0419702 -0.0256669 -0.00284365 -0.0173276 -0.0100646 -0.00611841 -14.6029 -21.561 -12.3296 0.0025 
332 1 0.0217204 -0.0382096 0.00517565 0 0 0 -0.00125745 -0.0075003 -0.0130653 0.0051259 -0.000595951 -0.00193496 15.2289 8.12452 7.26132 0.0025 
186 1 0.0277007 -0.0385792 0.00671354 0 0 0 -0.0224694 0.0355899 0.0427081 0.0245025 0.00520137 -0.0509617 1.76966 2.32787 5.32563 0.0025 
348 1 -0.0250025 -0.034494 0.0060309 0 0 0 -0.0633725 0.0500882 -0.0430146 0.00550911 -0.0105721 -0.029576 -2.79989 -10.0143 16.9869 0.0025 
378 1 -0.0120306 -0.0337435 0.00602938 0 0 0 -0.104316 0.0570926 -0.0682056 0.00489041 -0.0015423 0.0281919 -10.7449 -1.46174 -21.0481 0.0025 
667 1 -0.00228251 -0.0324681 0.00657704 0 0 0 -0.0400979 -0.0441192 0.0320065 0.00043552 0.000730221 -0.000474511 -7.91174 5.09607 14.4046 0.0025 
170 1 0.00748236 -0.0337225 0.00530065 0 0 0 -0.0602698 0.00927178 0.0316934 -0.0386509 -0.036588 0.00800215 -1.25296 6.64802 5.41107 0.0025 
357 1 0.0122535 -0.0340055 0.006708 0 0 0 -0.0651733 -0.0956912 0.0401351 0.00663508 0.000300363 0.00654284 1.42282 -4.6105 -1.94071 0.0025 
589 1 0.0176434 -0.0357144 0.00660407 0 0 0 0.0241742 -0.0326782 -0.0791913 -0.0129609 0.00894516 0.0311261 0.310503 -4.97005 -9.01136 0.0025 
262 1 0.021936 -0.0323531 0.0067016 0 0 0 0.0455617 0.0442297 0.12499 -0.00346279 -0.00103412 -0.0219067 13.4323 -3.51936 13.5315 0.0025 
194 1 0.0271625 -0.0335669 0.00684443 0 0 0 0.0563121 -0.0876475 0.0932796 -0.000644428 -0.000239487 -0.00270705 2.89083 -11.9949 -11.9209 0.0025 
11 1 -0.0341494 -0.0302265 0.00686445 0 0 0 0.0428059 -0.0215442 0.00935194 0.0257529 -0.0256987 -0.02638 -3.26418 -4.99347 12.8238 0.0025 
314 1 -0.0290673 -0.0313965 0.00609675 0 0 0 0.00803733 -0.0377574 0.0485715 -0.0268593 -0.019201 -0.00638167 3.97018 3.48062 1.0006 0.0025 
152 1 -0.0156685 -0.0304003 0.00686353 0 0 0 0.0904049 0.0133834 0.0178676 0 0 -0.00160516 1.93233 9.22615 -3.37843 0.0025 
160 1 0.00286426 -0.0319857 0.00638936 0 0 0 0.0457094 -0.0631303 0.00382785 0 0 -0.00160516 -20.2485 -2.50646 12.443 0.0025 
441 1 0.0089113 -0.0291518 0.0066383 0 0 0 -0.105263 0.0310933 0.102634 0.00495498 0.0217206 0.00724627 -3.88301 -25.8844 -5.91344 0.0025 
320 1 0.0162625 -0.0308749 0.0068589 0 0 0 -0.0392464 0.0119652 0.00671367 0.0288682 -0.010538 -0.0451426 6.9319 1.91014 4.49253 0.0025 
215 1 0.0306527 -0.0299603 0.00682185 0 0 0 0.106826 0.0436296 0.0176263 0.00475378 -0.00189817 -0.000188362 -15.1741 -2.54529 15.4209 0.0025 
223 1 0.0357193 -0.0305225 0.00668801 0 0 0 0.00703392 0.00181084 -0.0597324 0 0 -0.00160516 22.4796 3.47473 0.459722 0.0025 
260 1 -0.0385087 -0.0278471 0.00675537 0 0 0 -0.0968711 0.0532948 -0.00760901 -0.0040666 0.0238494 -0.0022225 3.80143 -12.8434 -0.10286 0.0025 
294 1 -0.0306651 -0.0266678 0.0068404 0 0 0 -0.0670804 0.00895401 -0.00880853 0.00968172 0.00896907 -0.00152496 -0.707643 5.92738 1.23052 0.0025 
359 1 -0.0252327 -0.0283082 0.00667717 0 0 0 0.0587404 -0.00681667 0.0457564 0.0299377 0.0264242 0.00302765 8.48042 12.2989 -4.46312 0.0025 
288 1 -0.0168254 -0.0255103 0.00651933 0 0 0 -0.0631297 0.0285483 -0.0255032 0.00905664 0.0142154 0.0156796 -10.1548 -1.72454 4.15191 0.0025 
350 1 -0.00531108 -0.0283027 0.00722301 0 0 0 -0.0471313 -0.0451132 0.0244046 0.00919059 0.00929669 -0.017763 -4.25842 9.09171 9.78116 0.0025 
315 1 6.01124e-05 -0.0278304 0.00684739 0 0 0 0.0203828 0.0632279 0.00493057 -0.00760753 0.00438867 0.0230249 -1.26209 1.82495 -5.95385 0.0025 
323 1 0.0202815 -0.0271954 0.006446 0 0 0 -0.0670731 -0.04585 -0.039152 -0.0197121 -0.0108728 -0.0161529 -13.176 5.23134 -19.6998 0.0025 
508 1 0.0258253 -0.0287352 0.00682448 0 0 0 -0.0101932 -0.0962419 -0.0130735 -0.00246529 0.00755235 0.0146484 2.73226 -1.37819 -0.519428 0.0025 
26 1 0.0395883 -0.0261343 0.00670706 0 0 0 0.00199865 0.0818507 -0.0720752 0.0473966 -0.0355699 -0.00297806 -2.11744 -6.64914 -11.6072 0.0025 
372 1 -0.0402297 -0.0227979 0.00661872 0 0 0 0.0519584 -0.0253506 0.0278806 -8.8579e-05 0.000658646 -0.00260612 2.96797 15.4942 -5.57386 0.0025 
192 1 -0.0267869 -0.0234391 0.00654841 0 0 0 0.0122486 -0.0189222 0.0350724 0.00485263 -0.0239465 -0.00298289 -0.256754 -3.30638 -1.81531 0.0025 
163 1 -0.0217437 -0.0246387 0.00665099 0 0 0 0.0285547 0.00278507 -0.069712 -0.00909084 0.00536609 -0.00355957 -9.68031 1.5976 -7.43808 0.0025 
145 1 -0.0130142 -0.0221473 0.00664165 0 0 0 0.0914575 0.0825747 -0.0306505 -0.00634888 -0.00228857 0.00730973 -12.6577 -6.29699 -0.450213 0.0025 
165 1 -0.00760722 -0.0216211 0.00689897 0 0 0 0.0611157 -0.00802894 -0.00271295 -0.0142074 -0.000649523 0.0229035 1.38185 17.9889 8.68347 0.0025 
235 1 0.00147987 -0.0229231 0.00700802 0 0 0 -0.105809 -0.147537 -0.207374 -0.0189036 0.0195084 0.0188284 -4.5875 3.4746 1.6279 0.0025 
57 1 0.00659654 -0.0244225 0.00664899 0 0 0 -0.0919002 0.0461325 -0.109378 0 0 -0.00160516 -4.27385 -23.0643 -20.4576 0.0025 
219 1 0.011104 -0.0221979 0.00664681 0 0 0 -0.00947676 -0.00270555 0.0461296 0 0 -0.00160516 4.86937 16.8889 -15.0681 0.0025 
269 1 0.0210801 -0.0220462 0.00601756 0 0 0 0.0747952 0.0465675 0.0718357 0.0354734 -0.0411313 0.0496003 0.54937 -5.74289 9.86585 0.0025 
391 1 0.0265554 -0.0228901 0.00563531 0 0 0 0.0544974 -0.0659781 0.0683784 0 0 -0.00160516 -7.02181 19.7511 -3.52218 0.0025 
435 1 0.0311498 -0.0249264 0.00591525 0 0 0 -0.0842242 -0.0590676 -0.087668 -0.0250304 -0.0048927 -0.0180546 -22.1272 -5.05342 7.41735 0.0025 
439 1 -0.0436936 -0.0186408 0.00683706 0 0 0 -0.015931 -0.085033 -0.00831853 -0.0189527 -0.024862 -0.0137657 -12.9187 6.92009 7.75547 0.0025 
69 1 -0.0370114 -0.01845 0.00672167 0 0 0 0.0129988 -0.0444632 -0.00985651 0.00918122 0.0239843 0.0326176 -3.45105 9.17121 6.44402 0.0025 
382 1 -0.0330957 -0.0209172 0.00461309 0 0 0 0.0362924 -0.0451729 -0.0293248 0.0151456 0.0013613 0.0104674 0.902054 6.47376 1.04467 0.0025 
371 1 -0.0279754 -0.0186144 0.00665474 0 0 0 -0.0713349 -0.0725226 -0.0304136 0.0107017 0.0143799 0.0338509 5.70051 -5.0167 -1.13031 0.0025 
120 1 -0.0227323 -0.0196205 0.00651437 0 0 0 0.0168552 -0.0787656 0.0320403 0.00360074 -0.00344213 0.00546122 -6.92008 -14.5832 -29.8968 0.0025 
201 1 -0.0178362 -0.0205664 0.00696053 0 0 0 0.00828953 -0.0644791 -0.0279296 0 0 -0.00160516 -8.98198 5.72065 5.18992 0.0025 
41 1 -0.00284928 -0.0195525 0.00647716 0 0 0 0.0745332 0.02663 0.00319848 0 0 -0.00160516 -11.6627 15.5807 22.2166 0.0025 
353 1 0.00220201 -0.0180384 0.00578255 0 0 0 -0.0706204 0.0750683 0.0193416 -0.0122864 -0.00414074 -0.0128276 -3.0219 12.7196 -7.44464 0.0025 
135 1 0.00709333 -0.0184711 0.00675513 0 0 0 -0.0236472 -0.0624689 -0.0470223 -0.0137786 0.00482908 0.0351202 -17.6148 -4.965 -6.28908 0.0025 
199 1 0.0162533 -0.0207126 0.00683615 0 0 0 -0.0312277 -0.0738707 0.0486944 -0.00538339 0.0110185 -0.0412526 10.6709 1.44593 -8.47767 0.0025 
356 1 0.0288324 -0.0182216 0.0068435 0 0 0 0.0970527 0.0258065 0.0583588 -0.0107199 0.0628463 -0.053827 -11.0258 5.86357 -31.0711 0.0025 
729 1 0.0335573 -0.0205764 0.00632513 0 0 0 0.0706845 -0.0731503 -0.0295014 0.00241744 -0.000494145 0.00559889 3.67869 -7.78223 10.0398 0.0025 