ITEM: TIMESTEP
3200
ITEM: NUMBER OF ATOMS
1800
ITEM: BOX BOUNDS mm mm mm
-0.05 0.05
-0.05 0.05
0 0.15
ITEM: ATOMS id type x y z ix iy iz vx vy vz fx fy fz omegax omegay omegaz radius 
85 1 -0.011305 -0.0463123 0.00329867 0 0 0 0.00069647 0.342322 -0.0208997 0.132196 0.445543 0.00289368 9.0422 45.1552 0.859859 0.0025 
150 1 -0.00315967 -0.040759 0.00233476 0 0 0 0.017743 -0.0560117 -0.341823 -0.00499241 0.0220672 0.450892 -29.9395 -4.68438 -1.26804 0.0025 
101 1 0.0116252 -0.0398743 0.00238296 0 0 0 0.297954 -0.0388694 -0.0691088 -0.011866 -0.00604419 0.264729 50.0966 54.8412 -8.23403 0.0025 
257 1 0.000468581 -0.0358174 0.00339162 0 0 0 -0.442671 0.141982 -0.117052 0 0 -0.00160516 42.6087 -3.09671 17.3587 0.0025 
438 1 -0.0148662 -0.0327145 0.00325354 0 0 0 -0.0459755 -0.262294 0.490186 0 0 -0.00160516 47.6539 5.3639 30.2018 0.0025 
18 1 -0.00940329 -0.0354085 0.00317523 0 0 0 0.0192698 -0.0326097 -0.125406 0 0 -0.00160516 62.4911 27.9873 -30.6017 0.0025 
354 1 -0.0083206 -0.0293265 0.00395094 0 0 0 0.252713 -0.494202 -0.375191 0 0 -0.00160516 5.52495 -5.64274 -5.89919 0.0025 
141 1 -0.000490173 -0.0306129 0.00311434 0 0 0 0.136042 -0.323874 -0.769629 0 0 -0.00160516 -49.2714 -31.4811 16.9692 0.0025 
294 1 -0.0259898 -0.0258423 0.00367213 0 0 0 -0.440564 -0.202994 -0.257866 0.000499782 -0.00117102 -0.00361221 -35.3456 20.1208 3.14134 0.0025 
307 1 0.0155898 -0.0272146 0.00369102 0 0 0 -0.328072 -0.0833877 0.375479 0 0 -0.00160516 51.4411 5.38449 -18.453 0.0025 
309 1 0.0275786 -0.02766 0.00290398 0 0 0 -0.02723 -0.158523 0.354699 0 0 -0.00160516 39.801 5.14314 9.36433 0.0025 
421 1 -0.0159793 -0.0240247 0.00244836 0 0 0 -0.37385 0.00881901 0.0557676 0.0382661 -0.0146706 -0.0209928 -12.2539 -15.1459 10.7212 0.0025 
225 1 0.000273073 -0.0228829 0.00258055 0 0 0 -0.227637 0.133162 0.412493 2.80309e-05 2.22993e-05 -0.0016149 34.9177 -17.7704 -14.4148 0.0025 
365 1 -0.0232293 -0.0214395 0.00240525 0 0 0 0.00108889 -0.165423 -0.301578 0.00431985 0.0089751 0.197607 -12.5796 38.9211 -7.03121 0.0025 
380 1 -0.0160589 -0.0186575 0.00257717 0 0 0 -0.024438 0.0928942 0.619725 0.0453044 -0.033213 -0.0417627 -50.1422 -50.9387 -20.4776 0.0025 
32 1 0.00639811 -0.0196889 0.00315085 0 0 0 -0.168896 -0.0182565 0.451154 0.200463 -0.0748198 -0.0039755 17.6714 48.8804 -29.8187 0.0025 
346 1 0.013525 -0.0197132 0.00254914 0 0 0 0.47964 -0.253871 -0.322441 0 0 -0.00160516 16.1197 20.9434 -28.3024 0.0025 
104 1 0.036144 -0.0178852 0.00344285 0 0 0 0.191771 -0.0686651 0.0920787 0 0 -0.00160516 23.2609 13.1683 -23.9305 0.0025 
405 1 0.00181098 -0.0180479 0.00297062 0 0 0 0.29494 -0.435953 -0.190762 -0.200463 0.0748198 0.000765182 -12.0685 85.933 11.6351 0.0025 
142 1 0.0176435 -0.0159086 0.00298979 0 0 0 0.491548 -0.15549 0.270071 0.0616227 -0.139431 -0.0761044 -48.5962 33.9233 10.879 0.0025 
292 1 -0.0420481 -0.0126796 0.00229941 0 0 0 -0.0388799 0.173784 -0.171231 0.0210663 -0.0212551 0.596917 -49.0403 6.65807 54.5725 0.0025 
336 1 -0.0218422 -0.0124941 0.00260626 0 0 0 0.196277 0.303355 0.0158851 0 0 -0.00160516 -40.4123 -43.3813 1.80983 0.0025 
331 1 -0.017133 -0.0104965 0.0026653 0 0 0 0.272043 0.213622 -0.215938 0 0 -0.00160516 -19.1988 -30.883 35.8148 0.0025 
7 1 0.0111813 -0.0125567 0.0028285 0 0 0 0.0835089 0.0928494 -0.440599 0 0 -0.00160516 -12.6574 -30.0121 4.09837 0.0025 
2 1 0.0236805 -0.0122699 0.00268531 0 0 0 0.0558775 -0.225986 -0.0833755 0 0 -0.00160516 -39.1547 -98.0835 -16.0567 0.0025 
238 1 -0.0330965 -0.00688712 0.00289425 0 0 0 -0.25255 0.226395 -0.204956 0 0 -0.00160516 -10.4649 -33.0596 3.43186 0.0025 
222 1 -0.00304155 -0.00867275 0.00249225 0 0 0 0.457656 -0.063444 -0.421591 0.0266192 0.0436713 -0.0287623 -30.8574 -58.2565 23.4805 0.0025 
347 1 0.00271135 -0.010247 0.00330162 0 0 0 -0.324774 -0.358165 0.387453 0 0 -0.00160516 27.3048 -16.5778 46.1835 0.0025 
202 1 0.0079836 -0.00590734 0.00300119 0 0 0 -0.0022024 0.212583 -0.0888316 0.00409554 0.00263465 -0.00964093 40.6087 -1.09165 -16.7237 0.0025 
1140 1 -0.0414026 -0.00161456 0.00251804 0 0 0 0.0254763 0.433586 0.421953 -0.191131 0.055128 -0.137302 -58.2592 92.7135 -23.962 0.0025 
252 1 -0.0205291 0.000174841 0.00273423 0 0 0 0.189794 0.421865 -0.000701028 0 0 -0.00160516 90.3577 36.2124 -4.55718 0.0025 
849 1 -0.0209301 -0.00340511 0.0711709 0 0 0 0 0 -0.813871 0 0 -0.00160516 0 0 0 0.0025 
255 1 -0.0030675 -0.0461991 0.00400388 0 0 0 0.0877445 0.482724 -0.11516 0 0 -0.00160516 -43.7398 -15.7194 -30.8299 0.0025 
189 1 0.00380356 -0.0471459 0.00586737 0 0 0 0.0546014 0.281751 0.236804 0 0 -0.00160516 42.3016 11.8539 -8.95725 0.0025 
103 1 -0.0152833 -0.043184 0.00440997 0 0 0 0.145655 0.554784 -0.141583 0 0 -0.00160516 -49.3904 22.1676 22.5744 0.0025 
241 1 0.00538298 -0.0407987 0.00477496 0 0 0 -0.0588492 -0.287431 -0.289265 0 0 -0.00160516 76.0105 78.9907 26.2221 0.0025 
389 1 0.0261895 -0.03953 0.00463744 0 0 0 -0.305629 0.511222 0.136067 0 0 -0.00160516 45.8141 64.701 -7.70814 0.0025 
409 1 0.0168879 -0.0375128 0.00458651 0 0 0 -0.136045 -0.942793 -0.126476 0 0 -0.00160516 -48.3059 44.8439 53.7135 0.0025 
37 1 -0.0194776 -0.0340244 0.00570004 0 0 0 0.253905 -0.333993 -0.275991 0 0 -0.00160516 -2.60676 -18.7474 5.20816 0.0025 
234 1 0.00962024 -0.0321724 0.00363094 0 0 0 0.185647 0.424897 -0.0495545 0 0 -0.00160516 83.0369 23.2188 10.6017 0.0025 
95 1 -0.0285073 -0.0317184 0.00501158 0 0 0 -0.409834 -0.597021 -0.308267 0 0 -0.00160516 -36.3951 -24.7095 -4.64536 0.0025 
220 1 0.018563 -0.0308791 0.00649351 0 0 0 0.0705895 -0.0638489 -0.159054 0 0 -0.00160516 -41.6467 -9.16169 27.2193 0.0025 
369 1 0.0338271 -0.0320289 0.00683452 0 0 0 0.384372 -0.195594 -0.00299348 0 0 -0.00160516 -44.5676 33.9125 29.7987 0.0025 
434 1 -0.0196424 -0.027401 0.00481499 0 0 0 0.0219584 -0.0454838 -0.445252 0 0 -0.00160516 63.3827 17.2657 56.884 0.0025 
378 1 -0.0124141 -0.0269149 0.00578924 0 0 0 -0.164713 -0.124785 -0.0380373 0.00016299 0.000171471 -0.00574896 -7.73377 43.0909 -36.0138 0.0025 
218 1 -0.0034333 -0.0260366 0.00370562 0 0 0 -0.198876 -0.569101 -0.225775 -2.80309e-05 -2.22993e-05 -0.00159542 -29.7437 8.94438 6.17055 0.0025 
70 1 0.000259207 -0.0259468 0.00713412 0 0 0 -0.192299 -0.148159 0.129959 0 0 -0.00160516 -14.4867 24.9761 -21.5554 0.0025 
126 1 0.00420975 -0.0281094 0.00366317 0 0 0 -0.321271 0.0941899 -0.556697 0 0 -0.00160516 15.7192 21.6843 -19.0398 0.0025 
66 1 0.0230963 -0.0278058 0.00534168 0 0 0 -0.0506579 0.16306 0.420217 -0.389815 0.178919 -0.363655 21.5649 148.734 -18.3009 0.0025 
132 1 0.0312954 -0.0269709 0.00642676 0 0 0 0.201322 -0.236302 -0.114845 0 0 -0.00160516 -15.5152 12.9487 -2.52794 0.0025 
433 1 -0.00883783 -0.0235082 0.00391608 0 0 0 -0.184716 0.0650013 0.129634 0 0 -0.00160516 18.3148 9.9933 -51.7738 0.0025 
87 1 0.00522922 -0.0233191 0.00693293 0 0 0 0.211209 -0.605302 0.18635 0 0 -0.00160516 -24.0905 45.7725 8.43099 0.0025 
30 1 0.0106298 -0.023159 0.005963 0 0 0 -0.101517 -0.172382 -0.91022 0 0 -0.00160516 -0.843825 91.9276 -27.5223 0.0025 
134 1 0.0182803 -0.0226321 0.00320098 0 0 0 0.0939948 -0.223046 -0.696836 0 0 -0.00160516 32.3069 -38.6417 60.6014 0.0025 
205 1 0.0337199 -0.0233611 0.00370062 0 0 0 0.025293 -0.47899 -0.494453 0 0 -0.00160516 -32.3183 -19.5911 -8.97278 0.0025 
231 1 -0.0425725 -0.0186617 0.0066698 0 0 0 -0.0781265 -0.199553 0.056418 -0.00644712 0.00338765 -0.00185545 -39.982 65.9407 -24.5384 0.0025 
102 1 -0.0382863 -0.0211947 0.00685259 0 0 0 0.228364 -0.618629 0.0241471 0.00644712 -0.00338765 -0.00135486 -13.7544 -6.81947 17.2068 0.0025 
10 1 -0.0341286 -0.0206525 0.00361327 0 0 0 -0.705013 -0.0220247 -0.176875 0 0 -0.00160516 -15.8985 49.2175 -7.86451 0.0025 
40 1 -0.008585 -0.0182011 0.00491686 0 0 0 -0.0204624 0.371804 -0.397337 0 0 -0.00160516 5.61901 43.0471 -22.1402 0.0025 
448 1 0.0225305 -0.0185351 0.0036585 0 0 0 -0.277965 -0.179921 -0.178025 0 0 -0.00160516 75.0331 15.0957 -12.213 0.0025 
386 1 0.0289278 -0.0206835 0.0046571 0 0 0 0.151784 -0.0893215 0.298171 0 0 -0.00160516 11.3477 37.2529 -14.4405 0.0025 
15 1 -0.0194347 -0.0162364 0.00524826 0 0 0 -0.149159 0.325823 0.543624 -0.0453044 0.033213 0.0385524 -16.4014 59.3049 -7.21104 0.0025 
321 1 -0.00308573 -0.0169424 0.00298808 0 0 0 -0.131425 -0.0332956 -0.717533 0 0 -0.00160516 38.1953 59.7237 -3.94673 0.0025 
383 1 0.00532775 -0.0160581 0.0064196 0 0 0 0.477066 0.0339851 0.195544 0 0 -0.00160516 -67.5665 -31.9402 22.8849 0.0025 
140 1 0.0213077 -0.0145359 0.00657234 0 0 0 0.46142 0.13361 -0.0627434 0 0 -0.00160516 -18.7414 91.1538 0.955592 0.0025 
74 1 -0.029033 -0.0117142 0.00554988 0 0 0 -0.194323 0.256695 -0.434001 0.0127256 -0.0754982 -0.0334611 67.3945 -58.9931 48.2001 0.0025 
22 1 -0.00532349 -0.0119215 0.00543284 0 0 0 0.017942 -0.0350725 0.0293146 -0.027069 -0.0435653 0.0347942 47.8914 83.2259 31.1809 0.0025 
80 1 0.0156671 -0.0119123 0.00499893 0 0 0 -0.243917 -0.131266 -0.333396 -0.0738483 0.112599 0.00137695 -24.3768 -9.35637e-06 -3.99475 0.0025 
237 1 0.0289086 -0.0138511 0.00447233 0 0 0 0.318834 -0.0589588 0.404967 -0.0289288 0.091427 -0.148679 -30.028 57.3405 10.9407 0.0025 
122 1 0.0443608 -0.0123137 0.00414734 0 0 0 0.682576 0.0379729 -0.177121 0 0 -0.00160516 -16.5616 22.7852 13.0291 0.0025 
105 1 -0.046171 -0.00810646 0.00540303 0 0 0 0.374921 -0.292183 0.210292 0 0 -0.00160516 -62.6048 -64.7173 -17.5786 0.0025 
449 1 -0.024258 -0.00922383 0.00642856 0 0 0 0.0780383 0.452231 -0.0411998 0 0 -0.00160516 -1.39886 -67.6649 -46.8004 0.0025 
158 1 -0.0111207 -0.00984433 0.00383017 0 0 0 -0.363045 0.152262 -0.369198 0.0718643 0.0509656 -0.101037 7.13519 -16.1972 -8.95968 0.0025 
425 1 0.0359649 -0.00827163 0.00516577 0 0 0 0.177641 -0.0659913 0.330615 0 0 -0.00160516 12.7933 71.7383 -1.9383 0.0025 
136 1 -0.0411545 -0.0066978 0.00592017 0 0 0 -0.191341 -0.351079 -0.447262 0 0 -0.00160516 27.2315 -12.7732 -5.5152 0.0025 
261 1 -0.0268836 -0.00458644 0.00280729 0 0 0 0.240415 0.610652 -0.697234 0 0 -0.00160516 71.6349 -3.88207 -23.119 0.0025 
342 1 -0.0210056 -0.00623265 0.00394649 0 0 0 0.145066 -0.485934 -0.271999 0 0 -0.00160516 30.6249 -54.8356 18.2728 0.0025 
117 1 -0.00916563 -0.00538039 0.00567189 0 0 0 -0.109352 -0.379945 -0.267821 0 0 -0.00160516 8.85902 60.3286 -14.6059 0.0025 
61 1 -0.00356645 -0.00370998 0.00368443 0 0 0 -0.057971 0.290659 -0.500651 0.00265338 -0.0113437 -0.0298219 -3.29437 -34.0482 25.3258 0.0025 
24 1 0.0130976 -0.00678619 0.00540238 0 0 0 -0.262827 -0.265852 0.153882 0 0 -0.00160516 58.0634 15.556 41.2889 0.0025 
408 1 0.0182376 -0.00643367 0.0037182 0 0 0 0.119851 0.218228 -0.271493 0 0 -0.00160516 12.757 75.9369 6.21622 0.0025 
92 1 0.0255109 -0.00594378 0.00554357 0 0 0 0.17985 -0.0310825 -0.356343 0 0 -0.00160516 21.285 -3.72648 -24.6095 0.0025 
393 1 0.030652 -0.00509545 0.00359802 0 0 0 -0.0232386 0.0379597 -0.653152 0 0 -0.00160516 -7.15406 2.51288 -5.9848 0.0025 
246 1 -0.0375128 -0.00292625 0.00512155 0 0 0 0.327206 -0.0617734 -0.0165337 0.191131 -0.055128 0.134092 -52.2101 2.31968 7.13732 0.0025 
901 1 -0.0157878 -0.000440534 0.00615878 0 0 0 0.0677884 -0.126586 0.028931 -0.0204783 -0.00168437 -0.00849225 4.59636 -32.2028 11.5077 0.0025 
147 1 0.00398187 -0.0029814 0.0060759 0 0 0 -0.240432 0.0131375 -0.754864 0.00334469 -0.00397053 -0.00799731 -1.73092 21.3011 14.027 0.0025 
188 1 0.019398 -0.000426282 0.00614072 0 0 0 0.639551 0.401879 0.0784333 0 0 -0.00160516 4.28732 39.9985 -9.33268 0.0025 
305 1 0.0351348 -0.000520372 0.00449409 0 0 0 0.218437 -0.198607 -0.0182093 0 0 -0.00160516 -45.6436 23.5733 23.9379 0.0025 
413 1 -0.0240128 -0.0387119 0.00937308 0 0 0 0.279029 0.414921 0.027123 0 0 -0.00160516 14.19 -5.7038 -12.1627 0.0025 
279 1 0.0113224 -0.0415299 0.00774978 0 0 0 0.370714 -0.405669 0.471643 0 0 -0.00160516 -4.71737 20.1992 14.9255 0.0025 
416 1 -0.00115319 -0.0383214 0.00889868 0 0 0 0 0 -0.813871 0 0 -0.00160516 0 0 0 0.0025 
186 1 0.0228629 -0.0374508 0.00959743 0 0 0 0.243985 -0.558212 0.295581 0 0 -0.00160516 -67.7202 30.6628 -35.1435 0.0025 
244 1 -0.0320962 -0.0350472 0.00716675 0 0 0 -0.338685 -0.58398 -0.091022 0.0216752 0.02542 -0.000427706 42.495 -9.4113 16.4863 0.0025 
444 1 -0.0097606 -0.0321488 0.00898817 0 0 0 -0.0803594 0.0983998 0.169473 0 0 -0.00160516 -61.421 24.3221 -11.6513 0.0025 
28 1 -0.00421151 -0.032777 0.00697698 0 0 0 0.251906 -0.082531 -0.747404 0 0 -0.00160516 -29.3095 33.9623 13.3229 0.0025 
29 1 0.00928522 -0.0358254 0.00874298 0 0 0 0.311668 -0.522742 0.338273 0 0 -0.00160516 92.2486 33.79 -9.66147 0.0025 
60 1 0.000547865 -0.0310848 0.00814919 0 0 0 0.112008 0.0286407 0.123459 0 0 -0.00160516 -42.9796 -24.0506 -12.3163 0.0025 
280 1 0.0263917 -0.0295355 0.00830574 0 0 0 0.110229 -0.360889 -0.38896 0.389815 -0.178919 0.360445 -30.0057 82.3435 11.6896 0.0025 
78 1 -0.032426 -0.0279041 0.00932969 0 0 0 -0.288298 -0.507776 -0.550021 0 0 -0.00160516 0.382534 -21.7746 -4.46788 0.0025 
291 1 -0.00674593 -0.0280821 0.00888615 0 0 0 0.51251 -0.0306671 0.456459 0 0 -0.00160516 -48.1037 53.4858 -61.493 0.0025 
373 1 0.00833487 -0.0273143 0.0084322 0 0 0 -0.072327 0.225767 -0.456209 -0.0370033 0.0539137 -0.126763 -34.6687 -25.3817 -21.0784 0.0025 
179 1 0.018755 -0.0265855 0.00931334 0 0 0 0.362123 0.124775 -0.379838 0 0 -0.00160516 -49.1889 -15.8169 2.98137 0.0025 
11 1 -0.0268569 -0.0235121 0.00799747 0 0 0 -0.130113 0.132959 0.0941472 0.0441598 -0.158225 -0.0477451 -72.9954 60.8806 -53.0463 0.0025 
195 1 -0.0175812 -0.023073 0.00700319 0 0 0 -0.387108 0.362622 0.0214917 -0.0344456 0.0148908 0.0943176 5.0994 -8.9615 8.46337 0.0025 
339 1 0.0397873 -0.0242651 0.00805878 0 0 0 0.0450641 -0.0896628 -0.370835 0 0 -0.00160516 22.1756 63.9031 -9.17103 0.0025 
306 1 -0.0278884 -0.0189283 0.00934285 0 0 0 0.00426312 0.536975 0.15146 -0.0446596 0.159396 0.0465419 38.731 63.5269 -2.00252 0.0025 
374 1 -0.00923278 -0.0204968 0.00984453 0 0 0 -0.372326 -0.271897 0.309793 0 0 -0.00160516 36.7052 -47.3182 1.63706 0.0025 
52 1 -0.00208151 -0.0206196 0.00933205 0 0 0 0.408632 -0.0901892 0.179859 0.021347 -0.0369257 -0.0016189 -20.9321 17.9331 20.3357 0.0025 
12 1 0.00408043 -0.0187896 0.010822 0 0 0 -0.262879 0.0480213 0.146715 0 0 -0.00160516 -24.2964 -5.17184 25.6274 0.0025 
159 1 0.0173431 -0.0196372 0.00759652 0 0 0 0.284618 -0.298152 -0.343368 0 0 -0.00160516 2.54046 -37.2272 19.5983 0.0025 
13 1 0.0250575 -0.0200286 0.00826938 0 0 0 0.544053 -0.175655 -0.305835 0 0 -0.00160516 8.01404 -60.6556 -40.1055 0.0025 
196 1 -0.0394065 -0.0143551 0.00630452 0 0 0 -0.242376 0.264545 -0.655064 0 0 -0.00160516 -38.4093 50.7288 18.1417 0.0025 
372 1 -0.0353751 -0.0157646 0.00891149 0 0 0 -0.66605 -0.236022 -0.262516 0 0 -0.00160516 26.6431 -27.3617 20.4724 0.0025 
293 1 -0.0144292 -0.0178564 0.00818424 0 0 0 0.354752 -0.0684106 -0.115179 0 0 -0.00160516 4.65147 -6.15404 -37.6593 0.0025 
226 1 -0.0046125 -0.0163649 0.00909398 0 0 0 0.247113 -0.200268 -0.493134 -0.021347 0.0369257 -0.00159142 11.4143 -46.1614 -4.9169 0.0025 
366 1 0.0126428 -0.0156248 0.0104538 0 0 0 0.0407454 -0.305655 0.433997 0.0058658 0.00803517 -0.000646103 -34.0168 -20.1391 17.4536 0.0025 
313 1 0.0295903 -0.0165851 0.0084729 0 0 0 -0.163814 -0.121275 -0.716792 0.0289288 -0.091427 0.145469 -20.4637 -3.87819 5.98561 0.0025 
322 1 0.038534 -0.0164595 0.00762661 0 0 0 0.262132 0.130567 0.453311 0 0 -0.00160516 1.75923 -8.40371 12.5558 0.0025 
445 1 -0.0135684 -0.0118143 0.00760141 0 0 0 -0.0969618 0.131023 -0.566593 -0.0718643 -0.0509656 0.0978267 31.1367 -12.0029 -6.93192 0.0025 
240 1 0.00988589 -0.0125086 0.00766685 0 0 0 -0.391791 0.100738 0.0932457 0 0 -0.00160516 47.8508 -22.0264 6.33103 0.0025 
20 1 0.0260964 -0.0106897 0.00802583 0 0 0 -0.369287 0.297887 0.191872 0 0 -0.00160516 30.8433 45.2118 29.5113 0.0025 
362 1 0.0343325 -0.0132854 0.00816462 0 0 0 0.2692 -0.235275 -0.0365239 0 0 -0.00160516 4.20271 -14.3782 -25.7928 0.0025 
439 1 -0.0344323 -0.0106426 0.00721337 0 0 0 0.107594 0.00234264 -0.127695 0 0 -0.00160516 65.0335 -71.9695 68.8171 0.0025 
65 1 -0.00040411 -0.0104896 0.00800327 0 0 0 0.485242 0.0999362 -0.581088 0 0 -0.00160516 59.6735 -11.6038 -2.32524 0.0025 
21 1 0.00592203 -0.00752602 0.00723611 0 0 0 0.0397185 -0.515051 0.127362 -0.00409554 -0.00263465 0.00643061 -7.8377 -24.3495 -1.73547 0.0025 
233 1 0.0165745 -0.0104065 0.00960707 0 0 0 -0.056139 -0.0117432 0.0977105 0.0122255 0.0268318 0.069912 -31.0967 7.51666 20.0055 0.0025 
338 1 0.0214776 -0.00863148 0.00845728 0 0 0 0.453143 -0.167541 0.302438 0 0 -0.00160516 15.1915 -11.1173 -4.16217 0.0025 
47 1 0.035916 -0.00866022 0.0102838 0 0 0 0.773308 0.102562 0.183105 0 0 -0.00160516 -34.9293 -43.2018 20.4621 0.0025 
221 1 -0.0361277 -0.00578688 0.00966329 0 0 0 -0.285488 -0.398208 0.0893004 -0.0310777 -0.0453128 -0.00916898 3.08835 18.0011 0.992485 0.0025 
367 1 -0.0295699 -0.00715398 0.00735816 0 0 0 0.0316308 -0.128014 -0.63096 -0.0127256 0.0754982 0.0302508 1.29411 -39.1282 9.95389 0.0025 
328 1 -0.0164086 -0.00657483 0.00799139 0 0 0 -0.707353 0.123523 0.0399878 0 0 -0.00160516 -2.57836 45.9973 57.6007 0.0025 
426 1 0.0299879 -0.00601231 0.0106649 0 0 0 -0.359483 -0.14649 -0.416745 0.016359 0.0476043 -0.047007 30.1467 42.6847 20.098 0.0025 
1189 1 -0.0333645 -0.00170806 0.0100938 0 0 0 -0.161456 0.00278932 -0.152768 0.0310777 0.0453128 0.00595866 14.5486 11.6946 39.1432 0.0025 
184 1 -0.00388281 -0.00206755 0.0083586 0 0 0 0.116473 -0.121215 -0.248179 -0.00265338 0.0113437 0.0266116 11.8392 12.9735 -15.4337 0.0025 
1021 1 0.00187612 -0.000797616 0.0100298 0 0 0 -0.236455 -0.303465 -0.328997 -0.00873013 -0.017331 -0.0116474 38.2945 65.4329 -61.7754 0.0025 
191 1 0.00971925 -0.00141969 0.00945217 0 0 0 0.331673 -0.223517 0.0956782 0 0 -0.00160516 -10.7064 0.584103 28.5422 0.0025 
368 1 0.0226987 -0.00355203 0.0101147 0 0 0 0.149447 -0.340099 -0.0252841 0.000807247 -0.00736062 -0.00229481 37.1881 -5.81898 -21.0366 0.0025 
1271 1 0.0274957 -0.0021541 0.0086847 0 0 0 0.039793 0.239632 -0.266087 0 0 -0.00160516 15.3422 47.0553 23.1483 0.0025 
1027 1 0.0361613 -0.00035067 0.00964971 0 0 0 0.533097 0.101687 -0.192934 0 0 -0.00160516 77.9955 -8.56705 10.6139 0.0025 
116 1 0.00584145 -0.0457572 0.0147976 0 0 0 0.194682 -0.466281 0.377723 0 0 -0.00160516 26.0512 8.19129 -7.99569 0.0025 
217 1 -0.0142272 -0.0408119 0.0117439 0 0 0 -0.404861 -0.484021 -0.536931 0 0 -0.00160516 0.931748 3.17837 3.1315 0.0025 
247 1 0.0112214 -0.0403752 0.0130992 0 0 0 -0.172055 -0.507368 -0.379315 0 0 -0.00160516 32.4401 -5.0652 6.93761 0.0025 
243 1 0.0171841 -0.0422126 0.0107642 0 0 0 0.149961 -0.83304 -0.073386 0 0 -0.00160516 28.6905 -27.2142 -38.1269 0.0025 
410 1 -0.00961166 -0.0379894 0.0102517 0 0 0 -0.0538469 -0.302384 -0.546059 0 0 -0.00160516 -3.47547 -47.1798 -10.2229 0.0025 
266 1 -0.0312139 -0.035719 0.0130047 0 0 0 -0.414652 -0.280481 -0.00110779 0 0 -0.00160516 34.408 -4.40154 4.73447 0.0025 
81 1 -0.0168504 -0.0325991 0.0106584 0 0 0 0.197095 -0.0387683 -0.765318 0 0 -0.00160516 -7.01951 1.3075 -20.0333 0.0025 
230 1 0.00519273 -0.0354934 0.0131649 0 0 0 0.0965335 -0.0635867 -0.64458 0.0410675 0.115563 -0.307368 -7.68371 -47.1997 -19.762 0.0025 
440 1 0.0136417 -0.0324295 0.010839 0 0 0 0.240608 0.180042 -0.392597 0 0 -0.00160516 62.746 -0.0696964 -22.8766 0.0025 
113 1 -0.0231704 -0.0321624 0.011733 0 0 0 -0.445646 -0.0721753 0.208731 0 0 -0.00160516 -38.8612 -63.6857 -10.1439 0.0025 
320 1 0.00943766 -0.0293485 0.0127543 0 0 0 -0.416368 0.0810073 -0.323253 0.0370033 -0.0539137 0.123553 -44.7645 1.04395 24.4019 0.0025 
332 1 0.022896 -0.0325 0.0111514 0 0 0 0.50618 -0.151457 0.148534 0 0 -0.00160516 -29.2077 -17.7051 -15.134 0.0025 
358 1 0.0284829 -0.0296298 0.0139262 0 0 0 0.0985853 -0.385824 0.0620897 -0.237846 -0.232391 -0.330856 -65.8355 46.6581 24.2864 0.0025 
286 1 -0.0123696 -0.027187 0.0107729 0 0 0 0.539996 -0.141777 -0.0993116 -0.00016299 -0.000171471 0.00253864 -41.305 33.0765 10.1604 0.0025 
268 1 0.00173036 -0.0275887 0.0124397 0 0 0 0.246968 0.15747 -0.789651 0 0 -0.00160516 -7.64896 12.2189 -1.44638 0.0025 
412 1 0.0232884 -0.0276858 0.0128963 0 0 0 0.358553 -0.116509 -0.817871 0 0 -0.00160516 -9.55771 -24.3949 -5.64791 0.0025 
303 1 0.0333072 -0.02529 0.0127356 0 0 0 0 0 -0.813871 0 0 -0.00160516 0 0 0 0.0025 
260 1 -0.0374677 -0.0230119 0.0125577 0 0 0 -0.105604 -0.210818 0.373248 0 0 -0.00160516 2.73118 17.4074 2.45764 0.0025 
262 1 0.0149651 -0.0247653 0.0125898 0 0 0 -0.477489 0.0853704 -0.377786 0 0 -0.00160516 -25.2458 -10.5323 -23.4506 0.0025 
424 1 0.020563 -0.0219851 0.0108855 0 0 0 -0.534485 -0.384274 -0.261622 0 0 -0.00160516 7.29723 -36.8098 0.544887 0.0025 
58 1 -0.0317444 -0.018632 0.0130192 0 0 0 -0.092654 0.16921 -0.777286 0 0 -0.00160516 -3.63754 14.9577 -5.31059 0.0025 
182 1 -0.0183483 -0.0199408 0.0114275 0 0 0 0.0593234 -0.121966 -0.0137949 0 0 -0.00160516 17.8187 11.1044 -30.2523 0.0025 
75 1 0.00966078 -0.0195576 0.00974474 0 0 0 0.0162092 0.278169 -0.557764 -0.0058658 -0.00803517 -0.00256421 -34.6824 6.88519 7.14251 0.0025 
109 1 0.036091 -0.0207431 0.0141235 0 0 0 0.0177731 0.0584964 0.401622 0 0 -0.00160516 -33.2652 39.1283 8.90186 0.0025 
187 1 -0.0247934 -0.0181098 0.0132473 0 0 0 -0.801136 -0.422635 -0.0404143 0 0 -0.00160516 -33.1704 -7.30303 7.95988 0.0025 
163 1 -0.0159031 -0.0149037 0.0119685 0 0 0 -0.22524 -0.259418 -0.195869 0 0 -0.00160516 0.213652 -8.7084 3.48608 0.0025 
23 1 -0.00809093 -0.0161519 0.0136409 0 0 0 -0.273558 -0.215874 -0.0542756 0 0 -0.00160516 -2.23561 -24.5756 -11.8695 0.0025 
273 1 0.00792619 -0.0139795 0.0129227 0 0 0 0.238298 0.293014 -0.453948 0 0 -0.00160516 -20.8829 -0.996127 14.6366 0.0025 
379 1 0.017178 -0.0174854 0.0126692 0 0 0 0.0809529 0.0223949 -0.775615 0 0 -0.00160516 -25.1845 -16.1804 -5.11348 0.0025 
282 1 0.0333544 -0.0166143 0.0122787 0 0 0 0.756006 0.101712 0.150481 0 0 -0.00160516 -52.9731 11.16 43.0675 0.0025 
121 1 -0.0277038 -0.0139209 0.012494 0 0 0 0.0828384 -0.265353 -0.801504 0 0 -0.00160516 -19.8814 20.9188 14.1024 0.0025 
49 1 -0.0199097 -0.0108563 0.0119484 0 0 0 -0.61836 -0.0387439 0.124375 0 0 -0.00160516 -74.0398 37.038 8.7009 0.0025 
326 1 -0.00883912 -0.0119076 0.0102688 0 0 0 0.439557 -0.130664 -0.483878 0 0 -0.00160516 -13.9718 -3.71188 -11.4554 0.0025 
442 1 -0.00429041 -0.0114968 0.0127747 0 0 0 -0.310886 -0.440545 -0.315989 0 0 -0.00160516 19.9927 -36.2038 35.3287 0.0025 
211 1 -0.0352035 -0.00883389 0.0142558 0 0 0 -0.166121 -0.332209 0.278327 0 0 -0.00160516 8.75219 -51.9481 -39.5337 0.0025 
289 1 0.043554 -0.00950393 0.0110912 0 0 0 0.151971 -0.0805383 0.196794 0 0 -0.00160516 -7.33227 3.44932 -8.6208 0.0025 
381 1 -0.0415482 -0.00529984 0.0127718 0 0 0 -0.590582 0.192254 -0.556148 0 0 -0.00160516 12.5183 13.6631 -44.0693 0.0025 
270 1 -0.0288719 -0.00745448 0.0137631 0 0 0 -0.198079 -0.341802 -0.324745 0 0 -0.00160516 5.50181 5.24814 6.33423 0.0025 
98 1 -0.0217525 -0.00437948 0.0105538 0 0 0 0.00182601 0.319242 -0.150636 0 0 -0.00160516 -35.6803 -15.5405 -4.04769 0.0025 
251 1 -0.0128455 -0.00464314 0.0118261 0 0 0 -0.424755 0.0302768 -0.416946 -0.00694591 0.126294 -0.120224 -18.7691 52.2533 -29.4385 0.0025 
144 1 -0.00721465 -0.0070231 0.0107858 0 0 0 0.109393 0.0300903 -0.662211 0 0 -0.00160516 25.8837 10.2364 -0.774366 0.0025 
287 1 0.00411981 -0.00417616 0.0132221 0 0 0 0.156469 0.210354 0.145177 0 0 -0.00160516 -1.9386 -73.686 -26.2235 0.0025 
38 1 0.0122274 -0.00574991 0.0107533 0 0 0 -0.111604 -0.133864 0.0164056 0 0 -0.00160516 38.6311 -14.5166 -5.3125 0.0025 
138 1 -0.0465879 -0.000197959 0.0130171 0 0 0 0.372164 0.189714 0.0377723 0 0 -0.00160516 -4.40012 -33.5036 39.1425 0.0025 
42 1 -0.0283729 -0.00246484 0.00998409 0 0 0 0.151184 -0.113996 -0.468358 0 0 -0.00160516 15.5469 29.0437 19.5041 0.0025 
82 1 -0.0270108 -0.0370846 0.0163823 0 0 0 -0.261719 -0.516594 -0.0258243 0 0 -0.00160516 16.3113 -26.9818 -14.514 0.0025 
271 1 -0.0179477 -0.0375242 0.0146154 0 0 0 -0.234039 -0.287776 -0.395566 0 0 -0.00160516 -33.6543 -8.77045 -19.2349 0.0025 
417 1 0.000631894 -0.0330697 0.0148437 0 0 0 -0.1139 -0.05026 -0.31879 0 0 -0.00160516 -6.61334 -14.2878 -10.1018 0.0025 
16 1 -0.024264 -0.0312683 0.0166069 0 0 0 0.031468 0.069381 -0.751233 0 0 -0.00160516 -4.43369 2.0846 -0.0812296 0.0025 
167 1 -0.0110067 -0.031083 0.0167379 0 0 0 -0.222039 0.278109 -0.185928 0 0 -0.00160516 -30.1134 9.88085 -15.0242 0.0025 
86 1 -0.00391215 -0.0304303 0.0151143 0 0 0 -0.308711 0.186503 -0.0835237 0 0 -0.00160516 -3.31238 21.5754 -4.8041 0.0025 
53 1 0.0161479 -0.0305664 0.0174702 0 0 0 -0.00794398 -0.0874032 -0.0664031 0 0 -0.00160516 -26.0407 -38.0273 -18.4669 0.0025 
314 1 -0.0245223 -0.0250813 0.016124 0 0 0 -0.355609 -0.0769023 -0.343693 0 0 -0.00160516 4.08947 7.03219 11.0684 0.0025 
394 1 -0.0188609 -0.0235685 0.0164147 0 0 0 -0.308451 0.0584309 -0.128874 0.0212342 -0.0543553 0.00383151 -35.0337 -41.1696 -3.7966 0.0025 
265 1 -0.0140382 -0.0241557 0.0146759 0 0 0 -0.0134977 -0.356021 -0.171707 0 0 -0.00160516 -13.2604 66.3025 22.1935 0.0025 
165 1 -0.00619358 -0.0249719 0.0156749 0 0 0 0.383814 -0.0390751 0.056313 0 0 -0.00160516 -27.0425 27.7684 13.8649 0.0025 
295 1 -0.00176722 -0.0233515 0.0139206 0 0 0 0 0 -0.813871 0 0 -0.00160516 0 0 0 0.0025 
6 1 -0.0204368 -0.0189109 0.0158589 0 0 0 0.288424 -0.128213 -0.45061 -0.0212342 0.0543553 -0.00704182 -19.5118 56.5015 29.048 0.0025 
201 1 -0.0131966 -0.0191789 0.0170399 0 0 0 0.401311 0.00198171 -0.303314 0 0 -0.00160516 -31.5733 36.511 7.98894 0.0025 
219 1 0.0125657 -0.0186121 0.0150552 0 0 0 -0.067525 0.429446 -0.319285 0 0 -0.00160516 -21.0455 -13.0006 -19.7883 0.0025 
304 1 0.0220076 -0.0185957 0.0167708 0 0 0 0.0154304 0.0646661 -0.453978 0 0 -0.00160516 67.1682 -46.2708 -7.68337 0.0025 
334 1 -0.00110083 -0.0170243 0.0140818 0 0 0 -0.333247 0.0134901 -0.535952 0 0 -0.00160516 -14.6104 -28.5108 0.432833 0.0025 
3 1 -0.0413974 -0.0112192 0.0145687 0 0 0 -0.0790624 -0.140887 -0.67285 0 0 -0.00160516 7.50444 -6.96683 -2.7525 0.0025 
382 1 -0.0236387 -0.0113675 0.015334 0 0 0 0.204294 0.0842086 -0.657161 0 0 -0.00160516 -8.6938 6.3493 7.9214 0.0025 
157 1 -0.0125898 -0.0135488 0.0158755 0 0 0 0.144049 0.34612 -0.665685 -0.127633 -0.0365473 -0.145287 -2.09476 18.977 7.89093 0.0025 
269 1 0.0152163 -0.0126007 0.0145786 0 0 0 -0.0977346 0.26666 -0.667079 0 0 -0.00160516 -14.5242 -5.96353 1.16247 0.0025 
151 1 0.0210035 -0.0119883 0.0164026 0 0 0 0.0197012 0.816932 0.231993 0 0 -0.00160516 85.6401 25.6561 -8.39488 0.0025 
397 1 -0.0125826 -0.00803508 0.0153336 0 0 0 -0.285433 -0.0105976 0.155475 0.00694591 -0.126294 0.117013 -25.7083 -24.6959 24.8178 0.0025 
79 1 0.000588978 -0.00933112 0.0142679 0 0 0 0.0059062 -0.143176 -0.870962 0 0 -0.00160516 -26.9901 -30.742 -2.33185 0.0025 
198 1 0.0152151 -0.00750632 0.0144568 0 0 0 0 0 -0.813871 0 0 -0.00160516 0 0 0 0.0025 
337 1 0.0286554 -0.00980685 0.0135433 0 0 0 -0.00623718 -0.0152319 -0.801256 -0.0192159 -0.0471301 0.0372028 0.773854 0.213696 0.640725 0.0025 
278 1 -0.00879275 -0.00451894 0.0150518 0 0 0 -0.095223 0.130669 -0.770903 0 0 -0.00160516 -2.70558 12.1978 -4.92822 0.0025 
254 1 0.024722 -0.00570956 0.0151224 0 0 0 -0.642767 -0.498475 -0.393138 0 0 -0.00160516 10.898 -34.9801 -24.7934 0.0025 
430 1 0.032137 -0.00649281 0.0151325 0 0 0 0.205969 -0.477112 -0.0288017 0.00285691 -0.000474179 0.00498875 40.9418 24.6227 -2.8027 0.0025 
99 1 0.0403849 -0.00519398 0.0168575 0 0 0 0.516831 -0.00397991 -0.340361 0 0 -0.00160516 -37.8715 16.6278 -13.7091 0.0025 
258 1 -0.017477 -0.00340106 0.0148035 0 0 0 0.644131 -0.480377 -0.214101 0 0 -0.00160516 24.4322 31.5543 17.1138 0.0025 
1025 1 0.0325408 -0.000660298 0.0142174 0 0 0 0.0843418 0.269536 -0.0697538 0 0 -0.00160516 86.5938 -80.4557 -30.8291 0.0025 
376 1 0.047624 -0.00110659 0.0156875 0 0 0 -0.106387 0.218993 0.0344147 -0.3327 -0.00785355 -0.00739612 34.4961 1.07728 -55.3152 0.0025 
352 1 -0.0152367 -0.0394375 0.0185253 0 0 0 0 0 -0.813871 0 0 -0.00160516 0 0 0 0.0025 
73 1 -0.00729034 -0.0418445 0.0197971 0 0 0 0 0 -0.813871 0 0 -0.00160516 0 0 0 0.0025 
4 1 0.00452473 -0.0369998 0.0177002 0 0 0 -0.139298 -0.293545 0.13317 -0.0410675 -0.115563 0.304157 19.9847 4.02146 4.12679 0.0025 
302 1 0.0123682 -0.0367172 0.0198393 0 0 0 0 0 -0.813871 0 0 -0.00160516 0 0 0 0.0025 
97 1 0.0218411 -0.035839 0.0190531 0 0 0 0 0 -0.813871 0 0 -0.00160516 0 0 0 0.0025 
8 1 -0.0150748 -0.0288508 0.0198553 0 0 0 0 0 -0.813871 0 0 -0.00160516 0 0 0 0.0025 
403 1 0.0121532 -0.0285689 0.0201223 0 0 0 0.0693242 0.131807 0.171366 0 0 -0.00160516 6.48353 50.2281 -8.85265 0.0025 
62 1 0.0226333 -0.0289944 0.0183488 0 0 0 0.00983516 -0.162954 -0.240997 0 0 -0.00160516 -8.41559 -26.8003 -7.47889 0.0025 
223 1 0.0309465 -0.0270766 0.0171353 0 0 0 0.293861 0.280459 -0.396995 0.237846 0.232391 0.327646 -23.7837 11.9612 8.71778 0.0025 
145 1 -0.00806454 -0.0228854 0.0200719 0 0 0 0 0 -0.813871 0 0 -0.00160516 0 0 0 0.0025 
68 1 0.00046029 -0.0244571 0.019708 0 0 0 0 0 -0.813871 0 0 -0.00160516 0 0 0 0.0025 
76 1 0.00627037 -0.0244571 0.0188986 0 0 0 0 0 -0.813871 0 0 -0.00160516 0 0 0 0.0025 
194 1 0.0194265 -0.0246764 0.0181778 0 0 0 0.389149 0.125884 -0.617875 -0.0346502 -0.017599 -0.0177827 32.9378 2.76324 -11.0022 0.0025 
161 1 0.0234885 -0.022757 0.0202767 0 0 0 0.110495 -0.561062 -0.137473 0.0346502 0.017599 0.0145724 22.0912 -3.00292 -21.4335 0.0025 
402 1 -0.0386068 -0.0192341 0.0185651 0 0 0 -0.0679938 -0.396588 0.376908 0 0 -0.00160516 -11.6044 15.908 4.59231 0.0025 
296 1 -0.0300243 -0.0206793 0.0180357 0 0 0 0.0435264 -0.0038779 -0.79644 0 0 -0.00160516 10.8236 -6.89628 -2.08009 0.0025 
215 1 0.0170137 -0.020082 0.0175016 0 0 0 -0.0135008 -0.205337 -0.379478 0 0 -0.00160516 19.7845 -11.8465 -4.83201 0.0025 
436 1 -0.0164108 -0.0143834 0.0191127 0 0 0 -0.0240289 -0.00128526 -0.786492 0 0 -0.00160516 0.877294 -1.42684 0.702895 0.0025 
57 1 0.002432 -0.0171352 0.0179615 0 0 0 0.266866 -0.00683595 -0.437879 0 0 -0.00160516 1.76974 22.5168 -0.846553 0.0025 
391 1 0.012076 -0.01707 0.0201368 0 0 0 0 0 -0.813871 0 0 -0.00160516 0 0 0 0.0025 
149 1 0.0257473 -0.0151343 0.0170728 0 0 0 0 0 -0.813871 0 0 -0.00160516 0 0 0 0.0025 