ITEM: TIMESTEP
7200
ITEM: NUMBER OF ATOMS
1800
ITEM: BOX BOUNDS mm mm mm
-0.05 0.05
-0.05 0.05
0 0.15
ITEM: ATOMS id type x y z ix iy iz vx vy vz fx fy fz omegax omegay omegaz radius 
255 1 -0.00432566 -0.0472894 0.00257569 0 0 0 -0.290306 -0.0671447 0.159402 0 0 -0.00160516 -20.8797 -5.44837 -99.2962 0.0025 
241 1 0.00600921 -0.0467113 0.00355074 0 0 0 -0.0774875 0.135653 0.171936 0 0 -0.00160516 56.488 39.4384 -10.061 0.0025 
150 1 8.65793e-06 -0.0440843 0.00287264 0 0 0 0.161719 0.0471391 -0.228794 0 0 -0.00160516 -55.6081 14.3539 6.8061 0.0025 
279 1 0.0124524 -0.0433913 0.00297823 0 0 0 -0.140084 0.124105 -0.640401 0.0486798 -0.0362269 -0.0980878 15.4097 78.5704 -23.8013 0.0025 
37 1 -0.0213536 -0.0406494 0.00260706 0 0 0 0.494434 -0.203118 -0.0451302 -0.0795794 0.0659637 -0.0285878 -39.0634 -75.2194 -25.8081 0.0025 
18 1 -0.0134101 -0.0415317 0.00277809 0 0 0 0.122671 0.0115992 -0.18228 -0.118162 0.144671 -0.0329706 72.4034 -0.914536 -30.5827 0.0025 
230 1 0.00709325 -0.0418623 0.00240641 0 0 0 0.260212 0.234664 0.0648542 -0.0760019 -0.00637176 0.082394 -40.9232 -32.7376 -95.2789 0.0025 
409 1 0.018171 -0.0425441 0.00341827 0 0 0 -0.0712524 -0.233186 0.539903 0.0490996 0.0347571 -0.0659259 -49.2228 14.7605 -28.5893 0.0025 
103 1 -0.0179975 -0.0369432 0.00273419 0 0 0 0.228491 0.115511 -0.138221 0 0 -0.00160516 44.239 40.3264 -17.9068 0.0025 
438 1 -0.0125698 -0.0366069 0.00270365 0 0 0 0.125351 -0.0420367 -0.346708 0.0627683 0.0263017 -0.144861 36.327 49.1569 -25.7246 0.0025 
141 1 0.0021131 -0.0380321 0.00247285 0 0 0 0.465623 0.174 -0.0983609 -0.0014123 -0.000650068 0.0294894 12.4209 8.24482 71.0222 0.0025 
101 1 0.0124284 -0.0381955 0.00266124 0 0 0 0.291569 0.0982414 0.00896962 0 0 -0.00160516 0.994244 24.1271 -20.3915 0.0025 
332 1 0.0192 -0.035982 0.00248584 0 0 0 -0.366053 -0.0875871 -0.46363 -0.0928558 0.0512684 -0.0130654 52.4021 -33.6771 -78.0515 0.0025 
309 1 0.0291426 -0.0362238 0.00406673 0 0 0 0.168673 -0.148216 0.285363 -0.0432838 -0.0828381 -0.113918 40.1553 -20.5997 -2.13008 0.0025 
244 1 -0.0300216 -0.0340612 0.00305163 0 0 0 -0.214622 -0.548064 -0.0501292 -0.0935505 -0.0657386 -0.116722 36.5869 42.6573 17.3838 0.0025 
95 1 -0.0224749 -0.0342838 0.00240381 0 0 0 0.129775 0.00963559 -0.111343 -0.00489378 -0.00870051 0.198042 98.0217 -4.4377 -1.39517 0.0025 
218 1 -0.00670859 -0.0352612 0.00250933 0 0 0 -0.164888 0.394124 -0.151709 -0.129589 0.380934 -0.0591349 48.1984 -26.4739 -1.03397 0.0025 
126 1 0.00706434 -0.0348259 0.00251167 0 0 0 -0.227419 -0.263146 -0.149979 0 0 -0.00160516 72.5022 30.9377 -41.1175 0.0025 
369 1 0.0336543 -0.0332676 0.00335641 0 0 0 0.0231733 0.144498 0.378654 0 0 -0.00160516 -40.8027 38.9042 -13.6329 0.0025 
10 1 -0.036283 -0.0299323 0.00316863 0 0 0 0.13228 -0.341952 0.161078 0.000631418 -0.00282537 -0.00120675 -23.7527 52.9211 -69.4924 0.0025 
81 1 -0.0183574 -0.0312281 0.0023791 0 0 0 -0.13213 -0.20583 0.0896196 0.00523039 0.0127711 0.274408 35.4438 -34.1261 -92.7975 0.0025 
378 1 -0.013112 -0.0314073 0.00293229 0 0 0 0.0247162 0.443635 0.408378 0 0 -0.00160516 59.2024 -15.3806 -53.6432 0.0025 
286 1 -0.00722735 -0.0291966 0.00309926 0 0 0 -0.134019 -0.239406 -0.170661 0 0 -0.00160516 11.7621 -68.7857 18.589 0.0025 
295 1 -0.00288692 -0.0320234 0.00351406 0 0 0 0.56951 -0.204681 0.64288 0 0 -0.00160516 16.3932 -156.929 -16.0132 0.0025 
68 1 0.00274545 -0.0311647 0.00306603 0 0 0 0.344982 -0.409643 0.362085 0 0 -0.00160516 51.4787 21.5185 -40.5314 0.0025 
440 1 0.0173025 -0.0310416 0.00309084 0 0 0 0.0504457 0.18786 -0.303725 0.0181871 -0.196855 0.00554716 73.4467 46.5949 -62.8856 0.0025 
134 1 0.0232835 -0.0300646 0.00281936 0 0 0 -0.201999 -0.306592 0.0403557 0 0 -0.00160516 60.2373 24.9175 55.7743 0.0025 
205 1 0.0369323 -0.0287866 0.00329916 0 0 0 0.223538 0.116225 -0.255823 -0.001784 0.00023199 -0.0005381 19.2337 26.4365 -2.9035 0.0025 
434 1 -0.0183526 -0.0260751 0.00280418 0 0 0 0.373521 0.271876 -0.225641 0 0 -0.00160516 18.1061 14.202 -64.2892 0.0025 
225 1 -0.000702292 -0.0260244 0.0028433 0 0 0 0.0411607 -0.0957058 -0.22259 0 0 -0.00160516 16.6777 -57.1402 -25.4865 0.0025 
346 1 0.0166217 -0.0262126 0.00284481 0 0 0 -0.18153 -0.626229 -0.192746 -0.0181871 0.196855 -0.00875748 2.07583 39.1468 5.60091 0.0025 
296 1 -0.0375432 -0.0251801 0.00233419 0 0 0 -0.0827612 0.101081 -0.25257 -0.0198714 -0.00792403 0.449934 -25.3378 -72.2587 -0.0345459 0.0025 
306 1 -0.0322103 -0.0246785 0.00329216 0 0 0 0.347426 -0.172971 0.298362 0 0 -0.00160516 9.08271 -40.367 3.03757 0.0025 
433 1 -0.00887954 -0.0243539 0.00327055 0 0 0 -0.031639 0.16399 -0.191585 0 0 -0.00160516 36.2978 -52.5238 -19.5807 0.0025 
75 1 0.0130994 -0.0217707 0.00257244 0 0 0 0.0071348 -0.146578 0.223647 0 0 -0.00160516 34.543 1.22116 46.2833 0.0025 
13 1 0.0225545 -0.0238073 0.00330632 0 0 0 0.271972 -0.0319827 -0.108716 0 0 -0.00160516 93.2925 -20.5169 2.07375 0.0025 
448 1 0.0323358 -0.0216651 0.00241953 0 0 0 0.349416 0.261979 0.0507905 -0.00637729 -0.00394065 0.148326 -16.7458 -3.21078 -19.6998 0.0025 
339 1 0.0398772 -0.0246908 0.00287252 0 0 0 0.203511 -0.0127485 -0.169393 0 0 -0.00160516 -13.2329 -35.4142 -28.1682 0.0025 
58 1 -0.0401249 -0.0210121 0.00326476 0 0 0 -0.384327 -0.247088 0.115393 -0.00242934 0.00421456 -0.000877011 38.0767 -50.8504 -18.1802 0.0025 
404 1 -0.0351176 -0.0193571 0.00274445 0 0 0 -0.165208 0.0298831 -0.156844 0 0 -0.00160516 -4.08087 21.3505 -31.1541 0.0025 
421 1 -0.0146467 -0.0209931 0.00259283 0 0 0 0.178881 0.142399 0.300457 -0.00029142 -0.000464576 -0.00212031 -38.386 -27.0931 7.27418 0.0025 
87 1 0.00155592 -0.0207779 0.00284686 0 0 0 0.0813963 -0.113079 0.119048 0.00151159 -0.000764498 -0.00249989 -1.13943 -67.3545 3.71417 0.0025 
32 1 0.00753058 -0.0203954 0.00329243 0 0 0 -0.15508 -0.180744 0.237671 -0.0137528 -0.0330823 -0.0280458 15.9882 -20.7461 -58.6447 0.0025 
366 1 0.0166601 -0.0178428 0.0029116 0 0 0 0.0536037 -0.206696 -0.176395 -0.0663007 -0.12136 -0.0114949 32.3098 -14.6173 17.4488 0.0025 
159 1 0.0227755 -0.0188126 0.00254087 0 0 0 0.158566 -0.341885 -0.311888 0 0 -0.00160516 -48.5363 0.941532 5.95286 0.0025 
149 1 0.0279077 -0.0182474 0.00291731 0 0 0 -0.473771 -0.251877 0.298447 0 0 -0.00160516 -38.3016 51.6474 91.621 0.0025 
74 1 -0.0386887 -0.015113 0.00264226 0 0 0 -0.302381 -0.227864 0.0478855 0.0151903 -0.205905 0.00214885 26.3009 -32.996 32.9307 0.0025 
121 1 -0.0304383 -0.0156912 0.00265296 0 0 0 0.0724672 -0.0964415 -0.69825 -0.00103439 0.00871112 -0.00580923 1.34846 -57.8996 -13.384 0.0025 
380 1 -0.01635 -0.0162279 0.00286496 0 0 0 0.0317801 -0.260698 -0.194462 0 0 -0.00160516 -88.7989 -32.3214 19.5623 0.0025 
40 1 -0.00834685 -0.0177455 0.00334458 0 0 0 -0.0183548 -0.237034 0.0927255 0.0585562 0.0284945 -0.0612345 53.127 -36.3776 -4.79752 0.0025 
405 1 0.00216056 -0.0149015 0.00238863 0 0 0 0.106719 -0.0265899 0.20312 0.0136547 0.00890483 0.157627 17.2996 26.3973 -18.3714 0.0025 
7 1 0.0126179 -0.0146486 0.00296129 0 0 0 -0.126505 0.100064 -0.280267 0 0 -0.00160516 -32.7938 34.1797 22.0173 0.0025 
196 1 -0.0443072 -0.0110531 0.0033618 0 0 0 -0.40186 -0.0749146 0.11886 0 0 -0.00160516 48.9577 56.6116 -21.4742 0.0025 
336 1 -0.0343657 -0.0119761 0.00264413 0 0 0 -0.467224 -0.023909 0.590925 0.0628928 -0.026805 -0.00485252 -11.7992 -75.4994 -7.47925 0.0025 
445 1 -0.0211644 -0.0142519 0.00244429 0 0 0 -0.072971 -0.383077 -0.343368 -0.104899 -0.214054 0.0406082 0.318598 -18.6726 -51.0434 0.0025 
158 1 -0.0120928 -0.0131669 0.00283985 0 0 0 0.000254411 -0.041571 0.304129 0.0061296 -0.176326 0.00301754 -28.7829 8.93977 32.3043 0.0025 
226 1 -0.00751587 -0.0106943 0.00273156 0 0 0 -0.126789 0.304417 0.202441 -0.0156862 0.0152327 -0.0122719 40.7499 15.2722 -30.7297 0.0025 
142 1 0.019132 -0.0136111 0.00306095 0 0 0 0.104493 0.0119111 -0.208812 0.0663007 0.12136 0.00828463 -52.2033 -9.27866 16.3133 0.0025 
2 1 0.0250611 -0.013764 0.00304817 0 0 0 0.0524521 -0.182247 0.0158435 0 0 -0.00160516 -24.337 -32.6589 -28.1449 0.0025 
20 1 0.0297596 -0.0117987 0.00299106 0 0 0 -0.31933 0.203995 -0.127364 0 0 -0.00160516 -4.00269 20.5284 -3.07783 0.0025 
426 1 0.036202 -0.0132188 0.00239472 0 0 0 0.676354 0.398054 0.241475 -0.0101726 -0.00427337 0.21907 -35.4203 -26.5279 -40.529 0.0025 
238 1 -0.0389955 -0.0102485 0.00264076 0 0 0 -0.307404 -0.0470859 0.113019 -0.0782985 0.230759 -0.00224307 4.89356 39.9121 -61.9984 0.0025 
449 1 -0.0290733 -0.00878804 0.00245597 0 0 0 -0.258425 0.101368 0.121261 -0.00105924 -0.00275271 0.0573843 -29.3107 -108.897 69.2331 0.0025 
331 1 -0.0185536 -0.0101884 0.00284432 0 0 0 0.124039 -0.670684 -0.269993 0.140684 0.245122 0.0210586 -16.5092 -65.9158 29.6389 0.0025 
117 1 -0.0121146 -0.00828851 0.00251762 0 0 0 0.458268 -0.322457 -0.00225149 0.13581 0.0647478 -0.0167585 61.3714 -21.6523 -86.4967 0.0025 
22 1 -0.000934353 -0.0101546 0.00247202 0 0 0 -0.387407 -0.0218427 0.0724922 -0.00142775 -0.0247885 -0.0480931 -1.15551 -37.5132 39.6939 0.0025 
24 1 0.00958221 -0.00865071 0.00272542 0 0 0 0.00819548 0.148458 -0.117578 -0.133348 0.0274396 -0.104949 -0.490382 -19.4151 87.5329 0.0025 
92 1 0.0262053 -0.00806385 0.00253367 0 0 0 -0.0074767 0.0449057 -0.255088 0 0 -0.00160516 81.6297 -6.24973 -6.95823 0.0025 
949 1 -0.033778 -0.0070196 0.00273142 0 0 0 -0.312251 0.187164 -0.603283 0.000215301 0.00195085 -0.00147389 -4.89951 8.6514 31.2478 0.0025 
252 1 -0.0160878 -0.00546884 0.00285127 0 0 0 0.0871883 -0.17065 0.167798 -0.14194 0.111578 0.00892549 42.7733 9.1026 66.7714 0.0025 
61 1 -0.00456779 -0.00634538 0.00306118 0 0 0 0.439553 -0.11658 -0.0976962 0 0 -0.00160516 -12.8637 -32.0222 9.98032 0.0025 
202 1 0.00398644 -0.0047319 0.00268319 0 0 0 0.0543029 -0.474547 0.149025 0.0274747 -0.0335843 -0.00182918 58.7657 -62.8695 -99.6224 0.0025 
80 1 0.0171622 -0.00385178 0.00293025 0 0 0 -0.16167 0.19943 -0.0703846 -0.0141447 -0.00223908 -0.00244007 14.6215 26.2271 1.16562 0.0025 
237 1 0.0318729 -0.00636081 0.00277234 0 0 0 0.337122 -0.250925 -0.281433 0 0 -0.00160516 2.2215 64.9228 33.818 0.0025 
425 1 0.036911 -0.00466486 0.00276037 0 0 0 0.395224 -0.0928573 0.00534673 0 0 -0.00160516 -17.4906 4.74915 -69.6877 0.0025 
305 1 0.0463123 -0.005048 0.00306269 0 0 0 0.141035 0.199327 -0.1456 -0.0120274 -0.00602918 -0.0542091 -25.8866 25.5589 -3.93172 0.0025 
1341 1 -0.036348 -0.000928547 0.00290616 0 0 0 0.198345 0.13481 0.100661 -0.182855 -0.108877 0.00972696 22.286 -30.8229 40.1838 0.0025 
342 1 -0.0254467 -0.000758284 0.00255398 0 0 0 -0.175666 -0.263465 0.288963 -0.0924078 -0.000190957 -0.0878735 56.2863 -43.2213 52.991 0.0025 
251 1 -0.0101951 -0.00168789 0.00268642 0 0 0 0.111353 0.0635254 -0.25662 -0.0505452 -0.126021 0.0024923 -19.9437 25.5527 -45.521 0.0025 
250 1 -0.00478943 -0.000182101 0.002693 0 0 0 0.135149 0.183624 -0.022767 0.0585085 -0.0529857 -0.000283965 -2.38084 -63.4854 -8.39945 0.0025 
347 1 0.000753879 -0.000984586 0.00249786 0 0 0 -0.118381 0.0231679 -0.0260748 -0.120354 -0.102428 -0.00266835 -59.9685 -17.3931 -13.4863 0.0025 
154 1 0.0110529 -0.00274651 0.00257089 0 0 0 0.0145535 -0.160459 0.296823 0 0 -0.00160516 22.6035 -10.0595 -27.9076 0.0025 
408 1 0.0274882 -0.00279805 0.00257591 0 0 0 0.0829877 -0.301703 -0.60095 -0.0997561 -0.0144933 -0.173487 -59.571 87.6042 -61.538 0.0025 
858 1 -0.0088942 -0.0198833 0.073302 0 0 0 0 0 -1.20627 0 0 -0.00160516 0 0 0 0.0025 
189 1 0.000681391 -0.0472109 0.007053 0 0 0 -0.115021 0.438929 0.0119943 0 0 -0.00160516 -27.25 -51.3773 43.7175 0.0025 
217 1 -0.0177199 -0.0438067 0.00363707 0 0 0 0.113784 0.106074 -0.225957 0.0326424 -0.092129 0.037344 -39.3283 122.708 26.8685 0.0025 
410 1 -0.00941149 -0.0442481 0.00342906 0 0 0 -0.151707 0.202908 -0.0846492 0.164875 -0.119708 0.0177538 -12.7391 -12.556 -21.2585 0.0025 
29 1 0.0105617 -0.0464626 0.00674569 0 0 0 -0.0121696 0.118457 0.0482434 -0.0889815 0.362816 -0.0191696 -40.3493 -17.4912 16.9146 0.0025 
243 1 0.0153026 -0.0446243 0.00685087 0 0 0 0.084024 -0.33106 -0.327737 -0.032581 -0.040541 0.0836233 0.671217 50.0761 55.9423 0.0025 
411 1 -0.0192684 -0.0394406 0.00723683 0 0 0 -0.508692 -0.397395 0.287168 0 0 -0.00160516 -40.38 39.6614 -22.0978 0.0025 
85 1 -0.00495195 -0.0396841 0.0031638 0 0 0 -0.0602714 0.337448 -0.462171 0.129589 -0.380934 0.0559246 107.995 -37.1284 -52.9453 0.0025 
257 1 0.00421475 -0.0425379 0.00755359 0 0 0 0.495482 -0.23162 0.216132 0 0 -0.00160516 36.2997 13.3013 11.5677 0.0025 
60 1 0.00967008 -0.0415224 0.00657448 0 0 0 0.0509184 0.370511 0.0158578 0.00205536 0.044957 0.177869 -35.7947 -8.17177 -42.6648 0.0025 
413 1 -0.0271921 -0.0384699 0.00317652 0 0 0 -0.541999 0.244219 -0.361935 0 0 -0.00160516 -49.4209 -36.9408 -12.8939 0.0025 
354 1 -0.00912883 -0.0387605 0.00615805 0 0 0 -0.116648 -0.638999 -0.039104 -0.0292471 0.0252343 -0.0328371 -20.9307 66.1294 32.6186 0.0025 
389 1 0.0233835 -0.0381108 0.00394878 0 0 0 -0.210672 0.0954565 -0.10361 0.0937064 -0.0513935 0.0270509 -10.9437 69.7276 39.6925 0.0025 
266 1 -0.0273227 -0.031869 0.00649491 0 0 0 -0.461542 -0.0582771 -0.100509 0.10354 -0.010036 0.11644 -46.2175 -34.3698 22.3069 0.0025 
167 1 -0.0105311 -0.0337944 0.00650151 0 0 0 0.0813396 -0.397145 -0.100402 0 0 -0.00160516 6.69603 -43.8841 -6.29304 0.0025 
268 1 0.00608645 -0.0316614 0.00704489 0 0 0 0.602733 0.31358 0.346979 -0.0289562 -0.229857 -0.122438 6.4565 -34.6389 -43.2104 0.0025 
194 1 0.0240397 -0.0331008 0.00687383 0 0 0 -0.150614 -0.245654 0.293938 0 0 -0.00160516 21.0042 11.1103 -1.42101 0.0025 
113 1 -0.0229987 -0.0291026 0.00408768 0 0 0 -0.46014 0.033814 0.137533 0 0 -0.00160516 -60.6729 0.314563 7.38523 0.0025 
115 1 0.000501931 -0.0300981 0.00789076 0 0 0 -0.0800561 0.236389 0.245779 0.115432 0.15831 -0.13303 2.84753 -31.6195 -10.9095 0.0025 
220 1 0.0119508 -0.0323415 0.00334784 0 0 0 0.377043 -0.261934 -0.292462 0 0 -0.00160516 -90.9313 40.6884 -65.8364 0.0025 
66 1 0.0282173 -0.0304139 0.00412673 0 0 0 0.358018 -0.0581823 -0.453157 0 0 -0.00160516 88.0377 59.7889 15.5888 0.0025 
294 1 -0.0277274 -0.0269544 0.00635649 0 0 0 0.243044 0.380039 -0.0302588 -0.00998906 0.0757745 -0.00453338 23.2069 14.6251 -38.5626 0.0025 
265 1 -0.0138042 -0.0257214 0.00580054 0 0 0 -0.174411 -0.215489 -0.257369 0 0 -0.00160516 -83.5248 48.5774 23.6525 0.0025 
30 1 0.00728048 -0.0277127 0.00277622 0 0 0 -0.404268 0.191068 -0.478324 0 0 -0.00160516 68.2973 -16.0584 -16.2995 0.0025 
132 1 0.0326646 -0.0279938 0.00577506 0 0 0 -0.27045 -0.236558 0.0887342 0.001784 -0.00023199 -0.00267221 -61.2518 -54.6002 6.24037 0.0025 
195 1 -0.0255648 -0.0219533 0.00347061 0 0 0 -0.106938 0.329411 -0.231041 0 0 -0.00160516 -13.165 -26.4625 38.4344 0.0025 
334 1 -0.00657013 -0.0211552 0.00648715 0 0 0 -0.046446 0.117105 -0.123092 0.131636 0.026361 -0.0522609 65.9021 49.0456 -23.9703 0.0025 
76 1 0.00265435 -0.0235925 0.00723075 0 0 0 0.0567282 0.270631 0.351193 0 0 -0.00160516 -49.6199 -48.7374 47.5531 0.0025 
424 1 0.0182891 -0.0222632 0.00589311 0 0 0 0.000593491 0.420745 -0.237419 0 0 -0.00160516 -66.8672 45.7446 -10.5472 0.0025 
285 1 0.028908 -0.0235653 0.00619829 0 0 0 -0.386585 -0.0107563 -0.24018 0 0 -0.00160516 -64.2822 -79.1287 -28.7882 0.0025 
365 1 -0.0300247 -0.02006 0.00500568 0 0 0 -0.123348 -0.224244 0.14983 0.0714693 0.076732 -0.135277 12.049 80.1054 66.3464 0.0025 
15 1 -0.0201579 -0.0198936 0.00490452 0 0 0 -0.0901072 0.350087 0.437904 0 0 -0.00160516 60.251 99.0079 -6.48283 0.0025 
293 1 -0.0126122 -0.0177736 0.00582833 0 0 0 0.343285 0.385623 -0.0678956 -0.0696691 -0.00385898 0.0383854 -1.4018 -11.7614 -47.8594 0.0025 
52 1 -0.00230112 -0.0185587 0.00511537 0 0 0 0.230806 0.297795 -0.080126 -0.00151159 0.000764498 -0.000710424 69.3159 0.204186 -29.9918 0.0025 
386 1 0.0368599 -0.0179054 0.00565594 0 0 0 -0.0871563 0.196203 0.193936 0.00699886 -0.00228491 0.000214653 8.00395 73.5611 -78.6787 0.0025 
282 1 0.0407243 -0.020931 0.00684904 0 0 0 -0.213808 0.198405 -0.0937238 0 0 -0.00160516 21.761 0.188913 74.9274 0.0025 
231 1 -0.0444666 -0.0168004 0.00421344 0 0 0 -0.228834 0.0351262 0.0103687 0.0436571 0.0140844 -0.00201122 -33.0415 3.95208 -62.9888 0.0025 
439 1 -0.0390769 -0.0169243 0.00740649 0 0 0 -0.360403 -0.081901 0.403608 -0.118239 0.0109789 -0.216197 -27.3628 90.7268 6.44137 0.0025 
9 1 -0.0246538 -0.016537 0.00510826 0 0 0 -0.377932 -0.105874 -0.325903 -0.0355415 -0.0264115 0.026782 -64.6568 -41.1447 39.1616 0.0025 
383 1 0.00449477 -0.0180536 0.00660969 0 0 0 0.0519809 -0.445083 0.0499519 -0.0216393 -0.00520322 0.000976334 -14.1518 15.813 -77.8751 0.0025 
273 1 0.00923378 -0.0166605 0.00606582 0 0 0 0.238348 -0.0434386 0.0990392 0.0353921 0.0382855 0.022254 23.7805 -23.2597 26.8652 0.0025 
313 1 0.0323591 -0.016272 0.00427329 0 0 0 -0.154461 0.575771 -0.101104 -0.00699886 0.00228491 -0.00342497 -131.518 13.8865 9.80762 0.0025 
104 1 0.0418459 -0.0164416 0.00337827 0 0 0 0.190838 0.0852112 -0.219793 0 0 -0.00160516 52.3105 43.5916 -49.5567 0.0025 
36 1 -0.0233946 -0.0110563 0.00614079 0 0 0 0.00462351 -0.194163 -0.232025 0 0 -0.00160516 -16.8104 -18.5361 17.6942 0.0025 
321 1 -0.00445307 -0.0139955 0.00483499 0 0 0 -0.24217 0.175926 0.11 0.155671 0.0303113 -0.108191 -78.4614 28.2407 15.6717 0.0025 
240 1 0.00661197 -0.0126121 0.00367738 0 0 0 -0.216062 0.134747 -0.262828 0 0 -0.00160516 3.54544 54.2565 -28.0579 0.0025 
450 1 0.0399132 -0.0121537 0.00565242 0 0 0 0.43626 0.429673 0.0813042 0 0 -0.00160516 33.8093 10.3774 -17.723 0.0025 
362 1 0.0455645 -0.0114647 0.00389956 0 0 0 0.731505 0.0496115 -0.216252 0 0 -0.00160516 58.3164 6.68511 56.0365 0.0025 
326 1 -0.0149384 -0.0108065 0.00624788 0 0 0 0.0604418 -0.706899 0.0525792 0 0 -0.00160516 9.6331 -21.8478 -36.9085 0.0025 
38 1 0.00522935 -0.00847864 0.00642491 0 0 0 -0.249141 -0.0554734 0.470444 0 0 -0.00160516 -32.5455 -10.9028 -57.9165 0.0025 
233 1 0.0142997 -0.00914897 0.00398445 0 0 0 0.11477 -0.0847161 -0.345247 0.124239 -0.0077645 0.0352236 13.0473 -21.6503 40.7763 0.0025 
338 1 0.0196203 -0.00825927 0.00401169 0 0 0 -0.111073 0.280118 -0.320009 0 0 -0.00160516 15.4916 -27.3754 -47.1128 0.0025 
292 1 -0.0456232 -0.0060524 0.00591471 0 0 0 -0.146013 0.242742 0.116694 0 0 -0.00160516 -38.5214 -73.5518 5.05221 0.0025 
155 1 -0.0383968 -0.00563866 0.0049649 0 0 0 0.0430447 -0.0933318 0.206636 0 0 -0.00160516 -74.276 -29.1661 5.97743 0.0025 
367 1 -0.0296157 -0.0035942 0.00296167 0 0 0 -0.333117 0.43538 -0.361904 0 0 -0.00160516 27.3791 -36.4972 -26.4609 0.0025 
49 1 -0.0224487 -0.00561085 0.00594564 0 0 0 -0.184616 0.169701 -0.079483 0 0 -0.00160516 -34.0148 -31.8935 -12.3089 0.0025 
328 1 -0.0129107 -0.00437747 0.00673979 0 0 0 0.20581 -0.111147 -0.0712801 -0.00899964 -0.0207818 -0.0113006 -14.0654 24.7622 -11.7614 0.0025 
278 1 -0.00851964 -0.0074121 0.00637655 0 0 0 -0.393135 -0.14985 -0.645732 -0.000331728 0.00138543 -0.00369102 -13.3252 14.8608 24.6426 0.0025 
191 1 0.0130272 -0.00482478 0.00670807 0 0 0 -0.133547 0.13339 0.154792 0 0 -0.00160516 7.84756 -2.28533 54.6673 0.0025 
1046 1 0.0220867 -0.00327513 0.00336638 0 0 0 0.0196154 0.282498 -0.110037 0.0141447 0.00223908 -0.000770242 38.8784 26.1526 60.8407 0.0025 
254 1 0.0257263 -0.00666805 0.00738911 0 0 0 -0.229385 -0.810978 -0.115016 0.0167798 -0.0181859 -0.00985823 -18.9916 -40.7774 -60.2846 0.0025 
122 1 0.0415007 -0.00603751 0.00447632 0 0 0 -0.345297 0.119556 -0.127282 0 0 -0.00160516 40.7291 -89.3727 -5.28394 0.0025 
1140 1 -0.0465311 -0.00117493 0.00498276 0 0 0 -0.241127 -0.0847181 0.0764975 0 0 -0.00160516 -33.8454 17.1579 -10.9508 0.0025 
945 1 -0.0415656 -0.00166772 0.003982 0 0 0 -0.0981769 0.181363 -0.0579119 0 0 -0.00160516 16.9036 -27.9696 19.1715 0.0025 
1337 1 -0.021729 -0.000598445 0.00576175 0 0 0 -0.521257 -0.16757 -0.0844004 0.0924078 0.000190957 0.0846632 53.8988 -10.5531 17.5711 0.0025 
287 1 0.00802995 -0.00352022 0.00664671 0 0 0 -0.0303537 -0.303246 -0.245121 0 0 -0.00160516 -12.7667 -44.7594 16.0783 0.0025 
514 1 0.0137588 -0.00546262 0.0715723 0 0 0 0 0 -1.20627 0 0 -0.00160516 0 0 0 0.0025 
4 1 0.00585078 -0.0472677 0.0102739 0 0 0 -0.039822 0.0296056 0.263498 -0.0305559 0.300892 -0.0747139 81.4673 79.7405 -38.5816 0.0025 
352 1 -0.0122626 -0.0437668 0.00775903 0 0 0 0.290303 -0.37089 0.282779 0 0 -0.00160516 22.585 14.7517 -34.4529 0.0025 
73 1 -0.00903747 -0.0462222 0.0107066 0 0 0 -0.409206 -0.473887 0.131236 0 0 -0.00160516 -53.6439 13.3541 10.9499 0.0025 
416 1 -0.00290316 -0.0452917 0.0112648 0 0 0 0.0289814 -0.366656 0.274142 -0.0588936 0.024535 -0.0653028 19.1488 -37.7535 -2.10933 0.0025 
28 1 -0.00609772 -0.0410634 0.00932249 0 0 0 0.246473 -0.368859 0.151824 -0.0411628 -0.0969111 0.0212806 3.18202 -23.654 -81.0016 0.0025 
302 1 0.0204994 -0.0428578 0.00789299 0 0 0 -0.112191 0.00102546 -0.452785 -0.00178617 0.00385612 -0.00139929 -8.63329 5.75633 -4.58266 0.0025 
102 1 -0.0299972 -0.0364346 0.00812776 0 0 0 0.0560506 0.0457974 -0.146723 -0.0155177 0.00753495 -0.00109875 -31.8925 8.29682 -35.52 0.0025 
82 1 -0.0254288 -0.0383964 0.00788957 0 0 0 -0.110496 0.109592 -0.25109 0.0155177 -0.00753495 -0.00211156 -12.9513 26.4894 -42.7367 0.0025 
444 1 -0.0142843 -0.0374646 0.00720499 0 0 0 0.375935 -0.206293 0.272258 -0.0455432 -0.0371332 0.137523 -72.5385 -26.7932 47.2746 0.0025 
377 1 -0.00180457 -0.0386905 0.0088461 0 0 0 0.357938 -0.438052 -0.553324 0.0702572 0.0368339 -0.00347878 -32.1596 -46.1564 8.8623 0.0025 
373 1 0.00745169 -0.0372273 0.0091726 0 0 0 -0.401187 -0.3764 -0.0734406 0 0 -0.00160516 -56.3776 1.50184 -55.847 0.0025 
234 1 0.0136923 -0.036863 0.00822345 0 0 0 0.05744 -0.145775 0.277135 0 0 -0.00160516 85.2586 -25.8447 16.457 0.0025 
53 1 0.0196276 -0.0371361 0.00965986 0 0 0 0.417753 0.743913 -0.133683 0 0 -0.00160516 59.7974 -0.714875 -99.6048 0.0025 
186 1 0.0246367 -0.0391975 0.0089252 0 0 0 0.0829795 -0.716134 0.0101429 0 0 -0.00160516 13.8326 -8.89096 -24.8204 0.0025 
78 1 -0.033749 -0.0330659 0.00844365 0 0 0 0.541402 -0.285081 0.37679 0 0 -0.00160516 -64.3422 -35.6407 0.110593 0.0025 
16 1 -0.0182374 -0.034544 0.00795639 0 0 0 0.328416 -0.0150511 -0.339683 -0.0170007 0.0120339 0.0025625 45.9769 -68.8047 -33.5598 0.0025 
70 1 0.00199416 -0.0356235 0.00783402 0 0 0 0.0639099 -0.149286 0.231416 0.00708799 0.0054629 -0.003883 53.109 16.2396 25.6499 0.0025 
280 1 0.0307162 -0.0333037 0.00767553 0 0 0 0.22248 0.0845897 -0.114952 0.0432838 0.0828381 0.110708 -79.181 9.01551 45.9207 0.0025 
260 1 -0.0370587 -0.0290939 0.0102341 0 0 0 -0.130561 -0.2482 0.0656773 0 0 -0.00160516 -61.2337 15.8196 -25.7664 0.0025 
314 1 -0.0301263 -0.0292664 0.0103675 0 0 0 -0.173459 -0.360213 0.0520746 0 0 -0.00160516 35.2596 -64.8287 15.1069 0.0025 
182 1 -0.0187732 -0.0294575 0.0075444 0 0 0 0.281091 -0.112945 0.220181 -0.0720779 0.0338546 -0.0257253 92.9469 -1.74335 -23.0764 0.0025 
8 1 -0.014465 -0.0312745 0.00912746 0 0 0 -0.309601 0.311799 0.10678 0.0720779 -0.0338546 0.022515 -5.68967 22.8751 -11.676 0.0025 
291 1 -0.00629209 -0.0317277 0.00842036 0 0 0 0.0355268 0.257386 -0.137777 0 0 -0.00160516 -7.27779 5.80511 -33.2332 0.0025 
213 1 0.0165443 -0.0320982 0.00816636 0 0 0 0.303391 -0.075513 0.210945 0 0 -0.00160516 45.9941 80.2807 -46.9027 0.0025 
223 1 0.036408 -0.0293217 0.00914842 0 0 0 0.192222 -0.606786 -0.0899572 0 0 -0.00160516 -6.18318 -0.445861 11.9384 0.0025 
394 1 -0.0209804 -0.0250182 0.00999649 0 0 0 -0.110967 0.212092 0.185526 0 0 -0.00160516 -48.9906 -3.3306 -61.9605 0.0025 
165 1 -0.0088935 -0.0275032 0.00974042 0 0 0 -0.0649004 0.281886 0.111606 0 0 -0.00160516 14.5675 63.8973 -13.6126 0.0025 
164 1 -0.00268554 -0.026206 0.00782218 0 0 0 -0.076012 0.0717736 -0.101162 0 0 -0.00160516 39.911 -1.97219 9.85963 0.0025 
320 1 0.00639337 -0.0274048 0.0093623 0 0 0 -0.162448 -0.0931797 0.293675 0.0289562 0.229857 0.119227 -39.8062 22.4106 33.3005 0.0025 
262 1 0.0122416 -0.0292053 0.00771289 0 0 0 -0.0518362 -0.678053 0.0311038 0 0 -0.00160516 -91.4852 -25.0164 -85.1638 0.0025 
307 1 0.0199359 -0.0280588 0.00706676 0 0 0 -0.540139 -0.200704 -0.10353 0 0 -0.00160516 49.9427 -38.6345 -41.9232 0.0025 
215 1 0.0253494 -0.0271452 0.00789685 0 0 0 0.157582 0.332777 0.375198 0 0 -0.00160516 -17.4972 -34.906 -11.4371 0.0025 
303 1 0.0398224 -0.0255591 0.0112943 0 0 0 -0.171489 0.0714865 0.429131 0 0 -0.00160516 -9.14311 9.18196 46.3236 0.0025 
372 1 -0.0417169 -0.0225983 0.0101126 0 0 0 -0.0692537 -0.2902 -0.180067 0 0 -0.00160516 -24.2335 53.0834 -38.0261 0.0025 
55 1 -0.0368548 -0.0224361 0.0084067 0 0 0 -0.338252 0.0603124 -0.273129 0 0 -0.00160516 -48.0662 -6.03951 87.8949 0.0025 
11 1 -0.0312268 -0.0234052 0.00836784 0 0 0 -0.236915 0.337036 0.144239 -0.103595 -0.111647 0.0102979 -68.9812 -2.93494 -76.395 0.0025 
163 1 -0.0172261 -0.0220627 0.0083583 0 0 0 -0.0794044 0.214802 0.471361 0 0 -0.00160516 45.9693 54.9711 60.0687 0.0025 
374 1 -0.0105086 -0.0226464 0.008991 0 0 0 -0.0151056 0.144011 0.0820921 -0.120231 -0.0505319 0.0692045 35.6803 -0.840314 20.2914 0.0025 
63 1 0.0324606 -0.021694 0.00961149 0 0 0 0.29004 -0.368219 -0.726991 0.0267365 -0.0369273 -0.0378181 65.0604 -68.1864 -48.9558 0.0025 
44 1 0.0364452 -0.0247373 0.00689683 0 0 0 -0.026076 0.296469 -0.578259 0 0 -0.00160516 -6.7987 -83.909 167.693 0.0025 
187 1 -0.026068 -0.0209141 0.0091015 0 0 0 0.107173 0.0682469 -0.147309 0.0625264 0.149165 -0.180418 27.7739 0.110619 5.79983 0.0025 
6 1 -0.021451 -0.0194568 0.0100888 0 0 0 -0.398381 0.214922 0.0625452 0.0675701 0.0184863 0.0103315 -147.817 -60.2919 -17.1126 0.0025 
219 1 0.0105932 -0.0212482 0.00806994 0 0 0 -0.163675 -0.18223 -0.276995 -0.00550674 -0.00598077 -0.00256166 13.457 17.6395 -60.4928 0.0025 
304 1 0.0236388 -0.0220092 0.00829944 0 0 0 -0.0758412 -0.347661 -0.655783 0.0357002 -0.00983026 -0.0277773 -78.8465 22.0272 11.3964 0.0025 
211 1 -0.0332896 -0.0168909 0.00695189 0 0 0 -0.166094 -0.256305 -0.135713 -0.0396857 0.0328806 0.0222081 -2.74119 -19.9016 -34.2698 0.0025 
270 1 -0.0287712 -0.0149073 0.00766491 0 0 0 0.210044 -0.108092 0.095826 0.004089 0.00173219 -0.00118099 -4.9921 88.1439 -4.73743 0.0025 
436 1 -0.0205285 -0.0150814 0.00769563 0 0 0 -0.290886 -0.22082 -0.0839933 0 0 -0.00160516 44.4081 4.7152 52.6052 0.0025 
23 1 -0.00803367 -0.0154117 0.00783448 0 0 0 -0.248349 -0.171456 0.459869 -0.139985 -0.0455441 0.115647 -10.5689 55.8551 32.9886 0.0025 
442 1 0.000774116 -0.0146862 0.00711602 0 0 0 0.0779038 0.165233 0.145294 0.0437681 0.0039897 0.0210733 -48.0113 -14.2111 0.531615 0.0025 
269 1 0.014055 -0.0176836 0.0084421 0 0 0 0.359919 -0.266968 -0.567945 0.00550674 0.00598077 -0.000648654 18.6361 -49.3063 -7.76879 0.0025 
140 1 0.0190277 -0.0173342 0.00759131 0 0 0 -0.134236 0.161726 0.0551608 0 0 -0.00160516 -15.7623 45.0565 -30.1388 0.0025 
183 1 0.0288652 -0.0166043 0.00791824 0 0 0 -0.161336 0.453317 -0.698164 0.0326262 -0.107528 0.00179446 -9.67743 -11.9335 -65.251 0.0025 
105 1 -0.0453556 -0.0141723 0.00846572 0 0 0 -0.136571 -0.609465 0.2787 0.0193712 0.00709137 -0.00188618 40.6011 -38.9424 3.70331 0.0025 
401 1 0.006158 -0.013489 0.00886357 0 0 0 -0.228381 -0.0642231 0.0706215 0 0 -0.00160516 10.1519 -14.4696 -28.5496 0.0025 
337 1 0.0274243 -0.0119016 0.00801484 0 0 0 -0.119565 -0.0186644 0.386155 -0.018068 0.107837 -0.025482 2.40706 -137.872 75.7516 0.0025 
322 1 0.0454327 -0.012857 0.00876159 0 0 0 0.324693 -0.223651 -0.0176883 0 0 -0.00160516 104.621 -59.382 -83.8892 0.0025 
136 1 -0.0405195 -0.00891298 0.00861581 0 0 0 0.391417 -0.233106 0.0504532 0 0 -0.00160516 79.0266 -68.9753 26.3476 0.0025 
181 1 -0.0334975 -0.0088008 0.00749442 0 0 0 -0.190815 0.267757 0.159535 0.0269694 0.0365361 -0.0421391 -85.6467 -43.0992 -70.038 0.0025 
27 1 -0.0281051 -0.00889093 0.00743128 0 0 0 -0.00111465 0.226539 -0.300059 0 0 -0.00160516 35.9887 -50.097 5.95977 0.0025 
157 1 -0.0190083 -0.00855441 0.00809156 0 0 0 -0.463727 0.448436 0.0996992 0 0 -0.00160516 -7.16276 -56.4914 -70.5437 0.0025 
190 1 -0.0077261 -0.0103067 0.0103624 0 0 0 -0.092808 -0.329087 -0.405476 0.0072211 0.0318588 -0.0188915 -26.8591 55.8975 3.42045 0.0025 
65 1 -0.000535176 -0.00852545 0.00710935 0 0 0 -0.254262 0.122513 0.369075 0.00291259 0.0249045 0.07467 4.14076 70.5786 2.51435 0.0025 
384 1 0.0104346 -0.00990923 0.00742527 0 0 0 0.456931 0.495826 -0.136552 0.00910828 -0.0196751 0.06491 2.31499 -18.5242 33.9788 0.0025 
166 1 0.0221721 -0.0106392 0.00786362 0 0 0 -0.607401 -0.0305049 -0.434857 0 0 -0.00160516 15.4043 -10.0178 -0.51557 0.0025 
284 1 0.0301885 -0.00771818 0.00944499 0 0 0 0.1895 -0.163353 0.229092 0 0 -0.00160516 -81.4922 35.0006 14.0652 0.0025 
47 1 0.0431738 -0.00817738 0.00945548 0 0 0 0.121386 0.139365 0.506957 0 0 -0.00160516 10.1842 26.2313 85.7612 0.0025 
246 1 -0.043748 -0.00413855 0.0105233 0 0 0 -0.610067 -0.379748 -0.163587 0 0 -0.00160516 -56.0096 -16.5422 -8.47315 0.0025 
94 1 -0.0254879 -0.00369073 0.010846 0 0 0 0.098586 0.179239 0.00840002 -0.00735468 0.0162936 0.000405218 84.781 14.0578 25.28 0.0025 
1021 1 -0.00459197 -0.00491078 0.0099275 0 0 0 -0.17571 -0.061844 -0.0432722 0.112566 -0.156216 0.110119 -21.2844 11.2642 0.964191 0.0025 
971 1 0.0165638 -0.00675269 0.00981414 0 0 0 0.0625656 0.021126 0.0408963 0 0 -0.00160516 -17.5119 -84.6963 -79.5596 0.0025 
290 1 0.0360219 -0.00695464 0.0075913 0 0 0 0.0972246 0.100937 -0.00182872 0 0 -0.00160516 -51.7872 -30.2479 10.2641 0.0025 
1027 1 0.0399605 -0.00332142 0.00978608 0 0 0 0.121946 0.281217 0.274216 0 0 -0.00160516 52.9943 36.7266 -9.80309 0.0025 
1100 1 0.0472965 -0.00471418 0.00790256 0 0 0 -0.163829 -0.00365701 -0.286056 0.0228446 -0.0740457 0.0725433 -38.8271 -55.0386 32.7527 0.0025 
381 1 -0.0476204 -0.000814118 0.0102944 0 0 0 0.402559 -0.0840745 0.040446 0.258561 -0.195485 0.0430294 -76.1047 -36.2624 -38.5166 0.0025 
1189 1 -0.0387928 -0.000795674 0.00945765 0 0 0 -0.385521 -0.0539182 0.104612 -0.01242 -0.0034469 -0.0101266 -54.4649 -29.905 -75.1359 0.0025 
42 1 -0.0338347 -0.00259955 0.00756752 0 0 0 0.0273332 -0.289125 -0.403043 0 0 -0.00160516 15.6457 50.33 12.4676 0.0025 
184 1 -0.00686892 -0.00148015 0.00732667 0 0 0 0.319234 -0.154792 -0.12098 0.105203 0.0840358 -0.191627 37.1091 -62.7017 -47.4636 0.0025 