ITEM: TIMESTEP
8800
ITEM: NUMBER OF ATOMS
1800
ITEM: BOX BOUNDS mm mm mm
-0.05 0.05
-0.05 0.05
0 0.15
ITEM: ATOMS id type x y z ix iy iz vx vy vz fx fy fz omegax omegay omegaz radius 
410 1 -0.0079746 -0.0469029 0.0029665 0 0 0 0.0629187 0.209385 0.383295 0.0244842 0.132118 -0.00802056 84.5257 -10.3339 -32.9492 0.0025 
255 1 -0.00280603 -0.0472516 0.00293589 0 0 0 0.0651419 -0.0553663 0.306691 0 0 -0.00160516 14.1619 13.9555 -59.1463 0.0025 
241 1 0.00690724 -0.047018 0.00271091 0 0 0 0.0219654 0.0545502 -0.130656 0.0392481 -0.147301 -0.116101 23.0865 72.7663 5.29291 0.0025 
150 1 0.00220857 -0.0454739 0.00242195 0 0 0 -0.26123 -0.126204 0.288722 -0.0340394 0.0139342 0.134111 93.6965 55.5474 33.4575 0.0025 
279 1 0.0128418 -0.0456845 0.00396395 0 0 0 0.138713 0.358244 -0.0400184 0 0 -0.00160516 5.19042 12.3046 -17.5697 0.0025 
37 1 -0.0213741 -0.0412966 0.00299265 0 0 0 0.196707 0.254625 -0.109288 -0.214334 0.0886969 -0.0494368 -39.7595 -34.2454 -69.7075 0.0025 
18 1 -0.0121161 -0.0417726 0.00314499 0 0 0 0.357725 0.0616161 0.292673 -0.0678826 0.0115543 -0.0347317 33.3706 -33.0335 -18.7013 0.0025 
85 1 -0.00137997 -0.0375919 0.00267416 0 0 0 0.0683953 0.313059 0.208918 0.0193858 3.50941e-05 -0.00168037 36.7306 -5.18085 20.8383 0.0025 
230 1 0.00910748 -0.0425969 0.00254454 0 0 0 0.519324 -0.236828 0.207773 0.0277964 0.0613069 -0.00620692 -75.8961 -5.3516 -21.3879 0.0025 
413 1 -0.0263902 -0.039404 0.00268854 0 0 0 -0.173379 -0.117864 0.169043 0 0 -0.00160516 5.21466 29.5203 15.3443 0.0025 
103 1 -0.0179939 -0.0371826 0.00251328 0 0 0 -0.537192 -0.280017 -0.182554 0.0214629 -0.0128248 -0.00349243 -22.1093 -9.78596 -20.9382 0.0025 
438 1 -0.0127852 -0.0368266 0.0026515 0 0 0 -0.376905 -0.280433 0.0531581 0 0 -0.00160516 -53.8693 1.7379 -40.1996 0.0025 
141 1 0.00493248 -0.0396637 0.00262961 0 0 0 -0.0405866 -0.0667852 -0.115177 -0.289412 -0.158749 -0.0453608 2.66219 42.0444 -3.99676 0.0025 
126 1 0.00909447 -0.0372347 0.00285126 0 0 0 -0.0153776 0.0945393 0.0498195 0.304816 0.15937 0.0079192 78.3356 -51.6157 40.7087 0.0025 
101 1 0.0154425 -0.0387557 0.00250862 0 0 0 0.364131 -0.4136 -0.556524 0 0 -0.00160516 9.93656 -12.6152 13.1854 0.0025 
389 1 0.0228696 -0.0417574 0.00340769 0 0 0 -0.232808 0.0429541 -0.271192 -0.061714 0.228455 0.0133247 -26.1566 34.5994 50.0497 0.0025 
244 1 -0.0304091 -0.0360359 0.00280275 0 0 0 0.424856 0.356025 0.114348 0 0 -0.00160516 32.7976 14.3401 -56.3865 0.0025 
218 1 -0.00634919 -0.0378226 0.00258128 0 0 0 0.234172 0.0628234 0.161904 -0.0193858 -3.50941e-05 -0.00152994 -25.8778 30.7742 -6.31541 0.0025 
68 1 0.00163393 -0.0324424 0.00296781 0 0 0 0.112689 0.175307 -0.0281806 0 0 -0.00160516 -60.0246 18.8239 10.1396 0.0025 
220 1 0.0115722 -0.0328911 0.00294936 0 0 0 -0.122144 -0.0818137 0.167715 -0.0205105 -0.0564288 0.00232205 -66.392 49.0513 -6.2708 0.0025 
134 1 0.0239487 -0.0339062 0.00236256 0 0 0 0.307123 0.278543 0.110463 -0.00503076 -0.0159452 0.332794 52.1636 73.7367 33.3896 0.0025 
369 1 0.0337029 -0.0325391 0.00258224 0 0 0 0.386246 -0.0233315 -0.0873967 0 0 -0.00160516 -16.9646 -39.1187 -1.53479 0.0025 
81 1 -0.0168071 -0.0316258 0.00353596 0 0 0 -0.0243539 -0.255622 0.0449605 0 0 -0.00160516 45.531 -1.87982 -5.19354 0.0025 
378 1 -0.0112523 -0.0306825 0.00339466 0 0 0 0.33453 0.140429 0.272957 0 0 -0.00160516 -66.388 8.54142 -32.6262 0.0025 
30 1 0.00699207 -0.0296009 0.00244155 0 0 0 0.284572 -0.107748 0.0128733 -0.00782296 0.0252008 0.0663651 15.9622 35.7818 -24.4968 0.0025 
440 1 0.0178094 -0.0294635 0.00280638 0 0 0 -0.432231 -0.182592 -0.422748 0.0536647 -0.0115918 0.00210219 4.07181 33.0487 -37.2867 0.0025 
66 1 0.0283631 -0.0313608 0.00278606 0 0 0 0.139069 -0.434918 -0.206633 0.00367642 -0.00237525 -0.00383252 48.234 -3.1035 36.8522 0.0025 
306 1 -0.0344451 -0.0265882 0.0024178 0 0 0 0.324404 0.16377 0.724222 0.0253768 0.0871964 0.131367 106.563 128.139 -30.9305 0.0025 
286 1 -0.00656732 -0.0258001 0.00362608 0 0 0 0.0431605 -0.138541 0.276231 -0.100588 -0.115262 -0.0209889 -60.3724 -2.68074 -9.87534 0.0025 
225 1 0.00254383 -0.0266413 0.00240883 0 0 0 0.104671 -0.00586324 -0.0170137 0.0374813 0.0266231 0.117492 28.7836 18.2713 -63.5553 0.0025 
346 1 0.0130369 -0.0281885 0.00253736 0 0 0 -0.459877 0.392007 -0.162137 -0.0331542 0.0680205 -0.00923971 28.1939 15.0661 18.9073 0.0025 
285 1 0.0278237 -0.0256558 0.00249716 0 0 0 -0.031863 -0.226327 0.198801 -1.83492e-05 3.22686e-05 -0.00234757 -17.8254 -74.3977 3.3928 0.0025 
205 1 0.0382959 -0.0279055 0.00255656 0 0 0 -0.46441 0.0531675 0.18221 0.018049 -0.0814552 -0.0135741 -14.5794 35.4511 25.6767 0.0025 
195 1 -0.0239711 -0.0255105 0.00250067 0 0 0 -0.00768953 -0.115068 0.198529 -0.13568 0.0371247 -0.0228761 67.6431 19.7074 14.1943 0.0025 
433 1 -0.0108694 -0.0202534 0.00274955 0 0 0 -0.416476 0.578781 0.32033 0 0 -0.00160516 -48.5271 -89.4923 5.36722 0.0025 
334 1 -0.00520187 -0.0212291 0.00239441 0 0 0 -0.0474082 0.18952 -0.0301684 -0.0273883 0.12456 0.128497 1.0179 -2.91458 -38.0435 0.0025 
87 1 0.00300489 -0.0216615 0.00295402 0 0 0 -0.00285931 0.0538126 0.0673098 0 0 -0.00160516 3.35098 -23.3989 31.4877 0.0025 
32 1 0.0074121 -0.024218 0.00284724 0 0 0 0.166006 -0.442746 0.106536 0.00373815 0.000836168 -0.00826566 41.4459 13.6496 -30.4401 0.0025 
75 1 0.0120656 -0.0223511 0.00244 0 0 0 0.141213 0.0975486 0.0436894 -0.00298892 -0.00377922 0.0947611 17.9572 11.737 45.62 0.0025 
339 1 0.0423139 -0.0200158 0.00317584 0 0 0 -0.150611 -0.0191759 0.165009 0 0 -0.00160516 -30.952 -4.95692 -41.9547 0.0025 
58 1 -0.042331 -0.0215852 0.00293202 0 0 0 -0.166548 0.422211 -0.237781 -0.0464426 0.0998539 -0.0145085 31.9319 -78.4589 -61.6505 0.0025 
404 1 -0.0366069 -0.020974 0.0027462 0 0 0 -0.219838 -0.397168 0.0958855 0 0 -0.00160516 12.7391 -34.1929 -45.121 0.0025 
421 1 -0.0161981 -0.0225566 0.00300566 0 0 0 -0.2284 0.206638 -0.0483906 0 0 -0.00160516 45.2986 -32.0868 40.7977 0.0025 
366 1 0.0157096 -0.0183713 0.00282862 0 0 0 0.0817869 -0.0499996 0.0797358 0 0 -0.00160516 -49.9353 5.47863 33.1179 0.0025 
159 1 0.0206026 -0.0215609 0.00322106 0 0 0 0.297106 -0.0573258 0.195409 0 0 -0.00160516 110.359 -56.9754 -27.285 0.0025 
149 1 0.0273563 -0.0196973 0.00288673 0 0 0 0.195329 0.149858 0.152837 -0.095385 -0.175917 -0.0418763 89.7286 -3.3968 85.9453 0.0025 
448 1 0.0345027 -0.0193357 0.00246707 0 0 0 -0.102994 2.87027e-05 -0.309801 -0.219511 0.2742 -0.025623 36.4224 15.9324 1.05905 0.0025 
231 1 -0.0449477 -0.0156829 0.00267627 0 0 0 -0.243069 0.210174 0.0508097 0.219349 0.0660792 -0.00739475 -74.4443 3.87702 30.1158 0.0025 
74 1 -0.039853 -0.0137222 0.00239856 0 0 0 -0.13065 0.75788 0.0162098 0.000796781 -0.0106363 0.211717 34.3758 -27.5873 2.35393 0.0025 
121 1 -0.0352243 -0.0158512 0.00287553 0 0 0 -0.551805 -0.139581 0.211176 0 0 -0.00160516 0.445888 -114.506 -48.3553 0.0025 
445 1 -0.0251037 -0.0165359 0.00261142 0 0 0 -0.577757 -0.0564002 0.266592 -0.0406307 0.00828715 -0.0554983 12.2066 -12.7704 -57.2771 0.0025 
380 1 -0.017915 -0.0170694 0.00249026 0 0 0 -0.443685 -0.0742829 0.220171 0.000139276 0.000123727 0.00212076 -39.661 -99.6719 -16.295 0.0025 
158 1 -0.0130264 -0.0149 0.00245031 0 0 0 0.127765 0.000998296 0.125566 -0.0029282 0.00203909 0.0678521 -6.9431 28.3002 -26.0249 0.0025 
40 1 -0.00599985 -0.016204 0.00251564 0 0 0 -0.159165 0.41442 -0.182542 0 0 -0.00160516 -3.9713 28.1395 59.8877 0.0025 
405 1 0.0025359 -0.01617 0.00290471 0 0 0 0.393399 0.283993 -0.279939 0.0577605 -0.0652268 0.00499541 -5.70037 -31.4565 20.5825 0.0025 
2 1 0.0247448 -0.0151811 0.00281568 0 0 0 -0.185704 -0.153958 0.180383 -0.0623109 -0.123288 -0.170751 22.9725 12.8985 -42.648 0.0025 
104 1 0.0441719 -0.0152816 0.00245438 0 0 0 -0.295677 0.345219 -0.619633 -0.0286048 -0.0696195 0.073381 -23.5353 0.147945 -18.1828 0.0025 
196 1 -0.0451597 -0.0106221 0.00257877 0 0 0 -0.0098082 0.0601912 0.157844 0 0 -0.00160516 13.079 5.79218 -7.6869 0.0025 
36 1 -0.0279727 -0.0101482 0.00299299 0 0 0 -0.483723 0.0473753 -0.334862 0.0525561 0.0136069 -0.10426 -29.7118 -4.43481 -6.98652 0.0025 
331 1 -0.0195592 -0.0118679 0.00294252 0 0 0 0.0546138 0.205894 0.275317 -0.00406962 -0.00835741 -0.000963015 22.578 -41.9397 -68.7148 0.0025 
226 1 -0.00738679 -0.0111658 0.00253928 0 0 0 0.123705 0.158233 0.294117 0.0476483 -0.0124538 -0.0140978 35.517 38.4052 -9.32027 0.0025 
22 1 -0.000869993 -0.0126139 0.00266459 0 0 0 0.0606872 -0.045829 0.122612 -0.0578158 0.064888 -0.00887504 58.0536 -61.6293 -20.9813 0.0025 
240 1 0.00489608 -0.0117309 0.00243731 0 0 0 0.181637 0.195259 -0.0918837 -0.00423283 -0.00315008 0.103922 -16.8556 -10.0482 -10.7476 0.0025 
7 1 0.0104692 -0.0129154 0.00253598 0 0 0 -0.184098 0.0835746 0.000874267 0.00128253 0.00398087 -0.00274573 -10.5728 -23.7263 3.72074 0.0025 
142 1 0.0191802 -0.0144559 0.00281605 0 0 0 -0.0907051 -0.0347527 -0.197445 -0.00517413 -0.0825999 -0.188688 -15.4441 -46.3043 -4.94301 0.0025 
20 1 0.0296437 -0.0154502 0.00360941 0 0 0 -0.125879 -0.00305743 0.156083 0.118701 0.173456 0.042593 37.845 -9.17662 4.46399 0.0025 
313 1 0.0364424 -0.0140647 0.00273575 0 0 0 0.147878 -0.220999 0.124248 -0.126066 0.0497141 -0.117275 -50.6285 57.5058 67.137 0.0025 
238 1 -0.0406311 -0.00807026 0.00263144 0 0 0 0.254008 -0.0272188 0.0947466 -0.00930192 -0.0467675 -0.0622242 4.36158 20.2719 -45.3428 0.0025 
449 1 -0.0331958 -0.0109408 0.00317986 0 0 0 0.0636057 -0.113018 0.0491238 0 0 -0.00160516 -10.346 -39.1529 -29.2665 0.0025 
24 1 0.00941096 -0.00789951 0.00287462 0 0 0 -0.0283388 0.222404 0.0584702 0.085029 -0.0155502 -0.0127278 -10.4284 28.9818 13.8168 0.0025 
233 1 0.0148177 -0.00953649 0.00290003 0 0 0 0.0681122 0.41721 0.102441 0.0730823 0.00965552 -0.0997893 29.8163 101.543 -40.9413 0.0025 
338 1 0.0204077 -0.00901563 0.00252291 0 0 0 0.0637975 -0.284077 0.266436 -0.0833864 -0.189967 -0.0198461 33.7755 3.67094 30.5773 0.0025 
92 1 0.0277761 -0.00915179 0.00276705 0 0 0 0.380541 -0.112452 0.158151 0 0 -0.00160516 19.7404 -32.3322 -62.9182 0.0025 
237 1 0.0337098 -0.00770743 0.00318946 0 0 0 0.220216 -0.198372 -0.0667319 0.156539 0.226829 -0.183123 -23.4757 27.6188 24.088 0.0025 
426 1 0.0398891 -0.00879083 0.00242601 0 0 0 -0.0815231 -0.452118 0.0882957 0.000823554 0.00651501 0.129732 -52.7842 -3.22384 2.24033 0.0025 
362 1 0.0462614 -0.0108152 0.00272259 0 0 0 -0.282935 0.0969136 -0.1002 0.0294099 0.0674793 -0.00120784 -3.07689 -19.2914 -28.2576 0.0025 
949 1 -0.0358563 -0.00585681 0.0029799 0 0 0 0.210118 0.350964 -0.10008 0 0 -0.00160516 -69.6686 -19.1033 1.39661 0.0025 
367 1 -0.0312238 -0.00379586 0.00250988 0 0 0 -0.219713 -0.173999 0.159972 0 0 -0.00160516 4.4371 -53.4342 -51.4961 0.0025 
252 1 -0.0172298 -0.00748849 0.00242446 0 0 0 0.193515 -0.280872 0.1383 0.000939591 0.0143123 0.132301 26.8614 32.5437 48.0529 0.0025 
61 1 -0.00574856 -0.00477344 0.00248621 0 0 0 0.363029 -0.149385 -0.178204 -0.0434133 0.063593 -0.0362726 37.7327 -9.20356 -16.6081 0.0025 
202 1 0.00463294 -0.00671176 0.00275884 0 0 0 -0.161919 0.286927 0.170143 -0.0817327 0.035694 -0.0329024 -1.5785 19.3172 -16.4616 0.0025 
80 1 0.0172999 -0.0043562 0.00243735 0 0 0 0.0234939 0.113434 -0.0864581 -0.17564 0.0198887 0.0333261 16.4278 15.5184 -4.56994 0.0025 
1046 1 0.0221331 -0.00448398 0.00297758 0 0 0 -0.283605 0.690538 0.195218 0.318766 0.176383 0.0336784 -89.4168 89.7666 37.4945 0.0025 
945 1 -0.0426506 -0.0031802 0.00282498 0 0 0 0.0283692 0.133075 -0.231022 0.149167 0.17233 -0.12914 24.3568 -46.7422 9.4271 0.0025 
755 1 0.00142785 -0.0385715 0.0652743 0 0 0 0 0 -1.36323 0 0 -0.00160516 0 0 0 0.0025 
342 1 -0.0261271 -0.00195297 0.00252448 0 0 0 -0.404729 0.301978 -0.345259 0 0 -0.00160516 30.316 -10.0084 -49.7188 0.0025 
1127 1 -0.0159267 -0.00237316 0.0027428 0 0 0 0.0519885 0.110213 -0.233845 0.107512 -0.00192354 -0.0196692 90.6122 -22.1745 7.09724 0.0025 
251 1 -0.00934481 -0.0012364 0.00247932 0 0 0 -0.224842 0.436943 -0.0253705 0.000452011 -0.000893916 0.0184288 0.120432 -1.5056 1.09693 0.0025 
347 1 -0.000640899 -0.00530428 0.00245747 0 0 0 -0.0922475 -0.397489 -0.0651306 0.000962936 0.00279438 0.0575077 -13.2114 22.5954 -45.4558 0.0025 
154 1 0.0107966 -0.00240295 0.00265639 0 0 0 -0.0300354 0.0380731 -0.399871 -0.00177676 -0.00201611 -0.00654372 -17.0001 27.7024 -21.285 0.0025 
368 1 0.0307264 -0.00137204 0.00244824 0 0 0 0.180512 -0.0639753 0.0691303 -0.00279093 -0.00262308 0.0749973 69.1534 26.9128 -73.8759 0.0025 
425 1 0.0375621 -0.00189782 0.00245584 0 0 0 0.152076 -0.126093 0.282093 -0.00160251 0.00358682 0.0536298 7.4285 33.3539 7.42932 0.0025 
1346 1 0.0423809 -0.00047582 0.00287278 0 0 0 0.236793 0.219561 0.144462 0 0 -0.00160516 -14.4233 -47.0779 33.9952 0.0025 
305 1 0.0473113 -0.00360812 0.00240926 0 0 0 0.358382 -0.0753522 -0.415801 -0.00845968 0.00425808 0.187812 -26.1675 32.9294 -4.32942 0.0025 
217 1 -0.016998 -0.0432614 0.00378042 0 0 0 0.442739 -0.136084 0.00764253 0.222531 -0.096404 0.0299671 15.9751 -30.4855 -8.51485 0.0025 
352 1 -0.0148061 -0.0449463 0.00842912 0 0 0 -0.0732025 -0.270857 0.688704 0 0 -0.00160516 19.1167 -22.7327 -31.2687 0.0025 
409 1 0.0181588 -0.0432552 0.00311963 0 0 0 -0.0112317 0.355605 -0.110013 -0.0497986 -0.0186014 -0.00503872 7.3092 5.93288 -44.102 0.0025 
354 1 -0.0078234 -0.0424313 0.00549612 0 0 0 -0.0498654 0.245858 0.156774 0.0678826 -0.0115543 0.0315214 -28.9435 46.2426 58.2465 0.0025 
377 1 0.00161626 -0.0395785 0.00632089 0 0 0 -0.0206668 0.0970648 0.0421152 -0.0882935 -0.234376 -0.0396833 -4.90259 -41.4163 3.84936 0.0025 
257 1 0.00603688 -0.0443281 0.00670745 0 0 0 0.23084 -0.146974 0.251779 0.0850371 0.158335 0.0877329 27.4554 22.0181 14.2489 0.0025 
444 1 -0.0146931 -0.0391423 0.00688728 0 0 0 0.365481 -0.00150566 -0.0226052 0 0 -0.00160516 -66.6591 -119.535 40.0002 0.0025 
332 1 0.0214702 -0.0371003 0.00706674 0 0 0 -0.292675 -0.256843 0.154161 0.310803 -0.252124 -0.226635 10.472 -47.8789 -38.3161 0.0025 
309 1 0.0295436 -0.0363249 0.00245959 0 0 0 0.0518603 0.167833 -0.385059 -0.00232924 -0.00191148 0.0586581 4.01971 -66.4254 15.193 0.0025 
95 1 -0.0221653 -0.0345455 0.00310124 0 0 0 -0.215489 -0.0326322 0.352611 0.00538349 0.0252276 -0.0555156 15.568 -50.709 25.1532 0.0025 
167 1 -0.00928113 -0.034998 0.00633178 0 0 0 0.517288 -0.147943 0.0296619 0 0 -0.00160516 28.7172 8.6746 28.6371 0.0025 
295 1 -0.00336429 -0.0325832 0.00543627 0 0 0 -0.334605 0.0956824 0.0457096 0 0 -0.00160516 -18.4926 -50.5426 11.9906 0.0025 
268 1 0.00739649 -0.0331476 0.00589035 0 0 0 0.0609222 -0.41996 -0.591679 0.0568373 0.00298424 0.00648231 -67.6957 24.9228 11.384 0.0025 
234 1 0.015933 -0.0349457 0.00587797 0 0 0 0.381551 0.142716 -0.374156 0.0125541 -0.00381374 -0.0130027 64.827 22.0763 0.137933 0.0025 
10 1 -0.0358245 -0.0313093 0.00260127 0 0 0 -0.385095 -0.0247156 -0.411427 0.0910863 0.000728637 0.0119442 -35.609 -2.5101 -42.5349 0.0025 
266 1 -0.0305453 -0.0306115 0.00291144 0 0 0 0.0553342 -0.110276 0.20122 -0.00615448 -0.140083 -0.13766 13.2394 -31.6023 18.3168 0.0025 
113 1 -0.0254794 -0.0304194 0.00335182 0 0 0 0.20997 -0.0572747 0.258476 0 0 -0.00160516 31.7212 -30.404 -57.8413 0.0025 
262 1 0.0155967 -0.0304533 0.00829104 0 0 0 0.0660378 -0.315724 0.364647 0 0 -0.00160516 -66.9254 -16.5936 -28.941 0.0025 
296 1 -0.03985 -0.025809 0.00331332 0 0 0 -0.335544 -0.438856 -0.636941 0.0444643 -0.068898 -0.0335907 -59.8068 -32.0565 4.31831 0.0025 
294 1 -0.0287542 -0.0264952 0.00488157 0 0 0 -0.0836601 -0.139364 0.286093 0.141234 -0.01632 0.140675 -71.0414 -16.131 -52.0801 0.0025 
434 1 -0.0192836 -0.0268552 0.00299797 0 0 0 0.137932 -0.253958 -0.223558 0.13568 -0.0371247 0.0196658 -46.8022 28.784 -19.9584 0.0025 
265 1 -0.0127101 -0.024908 0.00573444 0 0 0 0.119946 -0.158697 0.203581 0 0 -0.00160516 -48.9814 -43.4732 5.85795 0.0025 
164 1 -0.00252291 -0.0238027 0.00561469 0 0 0 -0.0614661 -0.0765431 0.0191905 0.131244 -0.0201927 0.115166 14.7398 -43.7513 -0.204175 0.0025 
13 1 0.0247822 -0.028754 0.00507746 0 0 0 0.0917191 -0.215617 0.0802454 -0.00367642 0.00237525 0.000622205 93.4308 -33.3902 -13.4683 0.0025 
132 1 0.0327069 -0.0275712 0.00350823 0 0 0 0.358322 -0.0609247 0.52113 0 0 -0.00160516 4.4045 -24.5335 27.0464 0.0025 
165 1 -0.0080397 -0.0233489 0.0079302 0 0 0 -0.130226 0.310034 -0.40199 0.0125105 0.0162576 -0.0222617 63.6556 46.5214 -3.42516 0.0025 
76 1 0.00479883 -0.0246274 0.0070738 0 0 0 -0.461773 -0.177352 -0.251348 -0.0196721 -0.00108479 -0.0383931 68.3178 6.26473 18.4814 0.0025 
424 1 0.0164878 -0.02459 0.00362423 0 0 0 0.191835 0.227107 0.0082429 0 0 -0.00160516 -47.5652 54.495 -29.1575 0.0025 
304 1 0.0238857 -0.0237334 0.00653322 0 0 0 -0.0966959 -0.283481 0.0525979 0 0 -0.00160516 -63.2704 67.9003 70.2721 0.0025 
44 1 0.0374551 -0.0230808 0.00315225 0 0 0 0.284162 -0.101427 -0.466485 0.203505 -0.193625 0.0788743 -19.2794 -66.3966 125.528 0.0025 
365 1 -0.0307661 -0.0227996 0.00240336 0 0 0 0.0994136 0.0937603 0.0498492 -0.0828469 0.126743 0.106209 28.1792 58.403 0.452212 0.0025 
187 1 -0.025258 -0.0213145 0.00573435 0 0 0 -0.178098 0.0152671 -0.494127 0 0 -0.00160516 -31.8873 -37.8913 41.6607 0.0025 
15 1 -0.0213529 -0.0212131 0.00259366 0 0 0 0.0256063 -0.0701732 -0.431459 0 0 -0.00160516 65.8383 64.8545 14.9452 0.0025 
52 1 -0.00111312 -0.0183083 0.00574591 0 0 0 -0.195308 0.0926197 -0.147003 0 0 -0.00160516 88.6495 -8.66879 -44.4778 0.0025 
273 1 0.00901893 -0.0175663 0.00361065 0 0 0 -0.0189361 -0.233111 -0.408841 -0.00128253 -0.00398087 -0.000464583 35.9949 -34.7179 83.8035 0.0025 
183 1 0.0323309 -0.0187791 0.00709946 0 0 0 0.0950424 -0.128097 -0.276776 0 0 -0.00160516 -16.9049 -54.0192 -63.5268 0.0025 
211 1 -0.0379412 -0.0167011 0.00699686 0 0 0 -0.383911 0.0791933 -0.0101301 0.217335 0.115287 -0.068859 -6.30861 32.1148 23.8666 0.0025 
9 1 -0.0301465 -0.0169369 0.00414216 0 0 0 -0.377707 -0.213472 0.000849037 0 0 -0.00160516 4.08352 27.1379 29.4008 0.0025 
140 1 0.018795 -0.0180187 0.00712154 0 0 0 -0.172368 -0.0060405 0.190299 0.12761 -0.0680387 -0.11137 -9.69327 13.9479 -7.16541 0.0025 
386 1 0.0398057 -0.0156534 0.005907 0 0 0 0.102276 -0.0241888 -0.0457444 0.126066 -0.0497141 0.114065 -39.1518 5.62931 -38.3275 0.0025 
336 1 -0.0412387 -0.0117081 0.00779891 0 0 0 -0.427034 0.0740928 0.0249936 0.0356858 0.0254654 -0.00420514 -34.7657 -60.7412 21.7472 0.0025 
436 1 -0.0239384 -0.0118201 0.00644354 0 0 0 -0.488342 0.276687 -0.0968111 -0.159935 0.0375191 -0.0900908 -13.3275 -0.498834 38.354 0.0025 
326 1 -0.0156486 -0.0127812 0.00616027 0 0 0 -0.497818 -0.168235 -0.659224 0.091648 0.0036411 -0.0529686 -13.5197 0.745389 24.6163 0.0025 
321 1 -0.0044413 -0.0133875 0.00636229 0 0 0 0.137268 -0.254827 0.107418 0.0592607 0.00516524 -0.134053 -32.7657 1.53718 2.00674 0.0025 
379 1 0.0146034 -0.0140253 0.00526187 0 0 0 0.267153 0.0049916 -0.334227 0 0 -0.00160516 26.246 -59.1883 -58.4749 0.0025 
337 1 0.0258794 -0.0123416 0.00661137 0 0 0 0.251558 -0.35003 -0.0246963 0.206158 0.169408 -0.0675487 -27.6762 2.58783 85.3986 0.0025 
157 1 -0.0197022 -0.00780854 0.00681925 0 0 0 0.325512 0.363082 -0.140943 0 0 -0.00160516 86.299 -56.4142 -22.2293 0.0025 
117 1 -0.012107 -0.0100687 0.00355252 0 0 0 -0.044168 -0.148558 -0.0254213 -0.0494485 0.00775068 0.00938461 68.7782 13.7106 -3.51506 0.0025 
65 1 -0.00359827 -0.00824386 0.00525141 0 0 0 -0.394256 0.025646 -0.160215 0.0427703 -0.0634973 0.0460633 54.1324 53.6677 -8.29262 0.0025 
384 1 0.0117477 -0.0100703 0.00669733 0 0 0 -0.0152855 0.035222 -0.106196 0.0571111 0.0378639 0.10686 9.89644 14.1893 15.5436 0.0025 
292 1 -0.0464534 -0.00590628 0.00412615 0 0 0 -0.152577 -0.273375 0.217858 -0.198916 -0.133588 0.0495618 -24.6042 -4.91242 26.6221 0.0025 
49 1 -0.0226309 -0.00699096 0.00262007 0 0 0 -0.355891 -0.122038 -0.0850581 -0.0382756 -0.0858431 -0.0243751 -45.2256 63.7564 -100.169 0.0025 
328 1 -0.0153537 -0.00492997 0.00718516 0 0 0 -0.199808 -0.391565 0.182402 0 0 -0.00160516 0.279227 37.1561 -25.6407 0.0025 
278 1 -0.0102344 -0.0056164 0.00479169 0 0 0 -0.0664957 0.166974 -0.0144712 0.00180026 0.00470308 -0.000102245 -75.4009 -33.3348 80.0864 0.0025 
287 1 0.00882627 -0.00458397 0.00785844 0 0 0 0.320631 -0.0910267 0.375305 0 0 -0.00160516 -16.5882 -26.4442 -13.5498 0.0025 
191 1 0.0136386 -0.00529463 0.00560784 0 0 0 0.0572281 -0.499527 -0.30217 -0.0599135 -0.0115668 0.0517095 31.5692 -15.0453 30.8864 0.0025 
408 1 0.0265872 -0.00251835 0.00512885 0 0 0 -0.12643 0.0953007 -0.513513 0.00130073 -0.00116763 -0.00478771 0.311788 128.551 -86.5601 0.0025 
122 1 0.0424768 -0.00528236 0.004903 0 0 0 0.425273 0.329812 0.223633 0 0 -0.00160516 -23.1666 -83.7383 15.007 0.0025 
1100 1 0.0465675 -0.00583156 0.00791922 0 0 0 -0.367957 0.0948534 -0.0494978 0.0226596 -0.0641618 0.00432107 22.2704 -14.0093 -29.529 0.0025 
42 1 -0.035894 -0.00146084 0.00650239 0 0 0 -0.1048 0.326802 -0.0794178 0.0386741 0.0794638 -0.0173667 24.8467 41.9789 -18.7772 0.0025 
718 1 0.00505044 -0.0161344 0.0653119 0 0 0 0 0 -1.36323 0 0 -0.00160516 0 0 0 0.0025 
1337 1 -0.020773 -0.00253182 0.00356868 0 0 0 0.0911832 0.0514405 -0.292618 -0.0692364 0.0877667 0.0392288 13.1904 -0.289702 -72.0933 0.0025 
393 1 0.0389246 -0.000662817 0.00764067 0 0 0 0.101283 0.0956348 0.457984 -0.0304353 -0.0123312 -0.0348005 27.4009 -51.5497 -66 0.0025 
73 1 -0.00839409 -0.0467988 0.00852003 0 0 0 -0.11342 -0.332965 0.429673 0.0126384 0.0694197 -0.00512839 52.3509 -62.4331 15.5385 0.0025 
189 1 0.00242493 -0.0475748 0.00713673 0 0 0 0.271296 0.577467 0.117097 -0.176661 0.171343 0.00788472 -46.2527 -15.7737 -56.2253 0.0025 
29 1 0.00981905 -0.0461677 0.00938764 0 0 0 0.185026 0.584841 0.264476 0.00669104 -0.00373897 0.00313757 -3.62937 -41.7214 -35.9811 0.0025 
243 1 0.016943 -0.0434567 0.0100167 0 0 0 -0.214035 0.0210856 -0.0525194 -0.0441206 -0.0135242 -0.00118169 70.8155 60.8561 34.9517 0.0025 
411 1 -0.0192769 -0.0413245 0.0077498 0 0 0 -0.272646 0.0524418 0.112259 0.214524 0.00119865 -0.0150756 -18.3342 34.9597 11.0455 0.0025 
28 1 -0.00262568 -0.0428447 0.00547147 0 0 0 0.135805 -0.382741 -0.495625 0 0 -0.00160516 58.6238 -33.4989 31.5723 0.0025 
60 1 0.012676 -0.0420736 0.00771597 0 0 0 0.456019 -0.277685 0.16179 -0.0474566 -0.109794 -0.160776 -31.8779 -67.0286 46.4056 0.0025 
302 1 0.021361 -0.0421864 0.00817889 0 0 0 0.27965 0.305957 0.212891 0.0409423 0.011565 -0.0211214 -20.4104 8.05396 -23.7812 0.0025 
102 1 -0.0288032 -0.0376721 0.0077611 0 0 0 -0.234303 -0.488072 -0.275521 0 0 -0.00160516 -4.35615 -23.8398 21.1415 0.0025 
82 1 -0.024114 -0.0408079 0.00736893 0 0 0 0.375408 0.243941 0.0637788 -0.203612 0.0143674 -0.0104624 22.0394 -21.0677 -61.7277 0.0025 
417 1 -0.0104209 -0.0389376 0.0104119 0 0 0 0.284058 -0.343705 0.171309 0.000418446 -0.00148001 -0.00318915 -36.2162 -48.4332 40.7761 0.0025 
274 1 -0.00131048 -0.0379211 0.0103242 0 0 0 0.083768 -0.191373 -0.453724 0 0 -0.00160516 -34.9533 -52.6944 82.4308 0.0025 
373 1 0.00739883 -0.0395977 0.0069567 0 0 0 -0.333301 -0.141857 -0.0157907 0.0355835 0.0859104 0.0160493 14.2488 -7.06369 -25.4073 0.0025 
53 1 0.0239404 -0.0391574 0.0117241 0 0 0 0.369034 -0.104419 0.0805101 0 0 -0.00160516 36.141 -41.424 -31.7302 0.0025 
186 1 0.0262959 -0.0382048 0.0060431 0 0 0 0.13521 -0.0941912 0.0901638 0 0 -0.00160516 47.1544 -12.8291 -19.3417 0.0025 
78 1 -0.0327365 -0.0343101 0.00800502 0 0 0 0.447899 -0.327767 -0.186263 0.00264403 -0.0386808 0.00891344 -38.942 -24.1912 48.3639 0.0025 
348 1 -0.0240519 -0.0356078 0.0075499 0 0 0 0.397549 -0.0883834 -0.114764 -0.0268464 -0.0124028 0.0541926 -51.1662 -56.7547 9.17611 0.0025 
16 1 -0.0191348 -0.0341821 0.00740816 0 0 0 0.385555 -0.608186 0.294762 -0.10483 -0.149796 0.0148663 -0.0915095 1.05947 6.29818 0.0025 
70 1 0.00312016 -0.0350956 0.00743239 0 0 0 0.326827 0.124702 0.0101706 0.0130126 0.206247 0.0700815 45.6034 34.646 40.4207 0.0025 
213 1 0.0209027 -0.0322877 0.0066736 0 0 0 -0.250927 -0.301428 -0.996324 -0.0270057 0.238111 -0.00908161 3.42886 64.7575 -28.9848 0.0025 
194 1 0.0263063 -0.0333956 0.00759585 0 0 0 0.0850994 -0.136206 -0.0166769 -0.0949875 0.0290867 0.00915511 -83.824 -14.0574 -104.526 0.0025 
280 1 0.0310556 -0.034604 0.00713763 0 0 0 0.257983 -0.190054 0.0617712 0.0513716 -0.0384978 -0.111329 17.2249 3.70777 42.8648 0.0025 
314 1 -0.0263781 -0.0305119 0.00921052 0 0 0 -0.0986592 0.0744847 -0.15543 0 0 -0.00160516 -4.65223 -20.631 6.12794 0.0025 
8 1 -0.0142857 -0.0337019 0.00740795 0 0 0 0.556177 0.0851246 -0.263425 0.208763 0.0113665 0.00320828 -49.4152 55.4804 -56.9103 0.0025 
291 1 -0.00877725 -0.0285942 0.00721578 0 0 0 -0.0192838 -0.272593 -0.672983 0.00704037 -0.012148 -0.0222655 56.4012 -30.3828 -10.8373 0.0025 
115 1 0.000149681 -0.0286574 0.00621889 0 0 0 0.0445901 -0.0563963 0.0615302 -0.0442718 -0.0327067 0.06164 2.07819 -42.4463 -44.4404 0.0025 
223 1 0.0352206 -0.0303595 0.00821286 0 0 0 -0.109647 -0.0881053 0.037359 0 0 -0.00160516 -14.8072 33.4883 -45.179 0.0025 
260 1 -0.0382934 -0.0281373 0.00739502 0 0 0 0.00529962 -0.192563 -0.829558 0.0298568 -0.0135867 0.0446303 -16.3402 29.9561 12.302 0.0025 
11 1 -0.0332296 -0.0295077 0.00688762 0 0 0 -0.188956 0.0661638 0.0343391 -0.0539094 0.0585095 0.0713989 -39.1753 9.89491 13.303 0.0025 
182 1 -0.0218468 -0.0301637 0.00681037 0 0 0 0.336606 0.184929 0.272929 -0.103932 0.13843 -0.0228901 -0.38198 47.3972 -50.7183 0.0025 
320 1 0.00932213 -0.0282219 0.00782317 0 0 0 0.791056 -0.138254 -0.0178261 0 0 -0.00160516 -88.0304 13.9093 -32.2388 0.0025 
307 1 0.0191228 -0.0269903 0.00715822 0 0 0 0.0155216 0.219665 -0.293126 0.0492852 -0.0210746 -0.134354 -14.6231 82.7685 -26.6577 0.0025 
215 1 0.0301823 -0.0294898 0.00883191 0 0 0 -0.241318 -0.159458 -0.58254 0 0 -0.00160516 -17.6381 -3.29958 52.7819 0.0025 
26 1 0.0383292 -0.0249468 0.00969433 0 0 0 0.563645 0.00675681 0.170672 0 0 -0.00160516 -85.6729 61.9701 -13.2227 0.0025 
372 1 -0.0413355 -0.023643 0.0080286 0 0 0 -0.0306636 0.0714886 -0.453935 0.248774 0.0664228 0.0163141 4.5935 77.5047 -16.2355 0.0025 
55 1 -0.034487 -0.0232497 0.0067292 0 0 0 0.359297 -0.0081512 0.111516 0 0 -0.00160516 -85.6124 54.486 55.8402 0.0025 
394 1 -0.0216606 -0.0251532 0.00718158 0 0 0 -0.0618053 -0.233502 0.0683259 0 0 -0.00160516 28.8741 -55.2143 -34.1939 0.0025 
163 1 -0.0182758 -0.0208888 0.00727741 0 0 0 -0.314991 0.136663 0.189433 0.00025854 0.000530049 -0.00455417 4.1725 -14.8396 90.0594 0.0025 
374 1 -0.0131792 -0.020864 0.0102026 0 0 0 -0.126437 0.122719 -0.0806635 0.00437054 -0.0137572 0.0140303 77.1277 0.381383 -5.87539 0.0025 
315 1 0.000480208 -0.0244604 0.00959457 0 0 0 -0.0437997 -0.111095 0.141213 -0.0721032 0.112882 -0.0327834 -33.1522 -5.89363 -32.4351 0.0025 
219 1 0.0088049 -0.021656 0.0074121 0 0 0 0.180522 -0.017692 0.199814 0.00208943 -0.0129632 0.000194926 -31.7826 15.8937 -24.4962 0.0025 
63 1 0.031508 -0.0236448 0.00794643 0 0 0 0.289826 0.00307607 0.0758092 0 0 -0.00160516 89.3211 -22.8966 -64.0468 0.0025 
439 1 -0.0422525 -0.0188 0.00770691 0 0 0 -0.718243 0.344817 -0.0640293 -0.24889 -0.0647569 0.0414878 35.4034 84.0656 -15.8986 0.0025 
382 1 -0.029444 -0.0214476 0.00950409 0 0 0 -0.141831 -0.0883384 -0.219442 0 0 -0.00160516 32.9015 44.5311 -55.6709 0.0025 
6 1 -0.0219602 -0.0171418 0.00637134 0 0 0 0.312609 -0.0593594 -0.00605459 0.0406307 -0.00828715 0.052288 -89.2613 -2.70059 -0.967089 0.0025 
293 1 -0.0140607 -0.0177873 0.006397 0 0 0 0.296013 0.147897 -0.160023 -0.00485995 0.0126771 -0.0157062 -0.016939 -36.8688 -111.324 0.0025 
41 1 -0.00567989 -0.0188262 0.00794155 0 0 0 0.184575 0.36998 0.0375007 0 0 -0.00160516 -1.89956 -75.8661 1.26553 0.0025 
269 1 0.0135965 -0.020361 0.00693766 0 0 0 0.0980604 -0.0583968 -0.188574 0.00772606 0.00217949 -0.00197914 59.5073 -1.66225 48.6244 0.0025 
391 1 0.0198091 -0.0224916 0.0092015 0 0 0 -0.273008 -0.326591 -0.138959 0.00433106 0.00685674 -0.00091449 111.822 31.58 8.19945 0.0025 
282 1 0.0396875 -0.0205506 0.00739925 0 0 0 -0.127813 -0.133659 -0.192545 0.0816353 -0.00706079 -0.0715131 84.1804 -44.3086 32.7395 0.0025 
105 1 -0.0453034 -0.0145418 0.00792883 0 0 0 -0.140434 0.29316 -0.18775 0.108298 0.0134362 0.00270769 46.9708 -47.0512 -20.5492 0.0025 
361 1 -0.0292152 -0.0162187 0.00901281 0 0 0 -0.079957 -0.173382 0.0159544 -0.0609799 0.00724083 -0.145393 -1.58697 3.31474 -14.2649 0.0025 
23 1 -0.00946856 -0.0152747 0.00602921 0 0 0 -0.239111 -0.173795 -0.335591 0 0 -0.00160516 40.9021 69.7291 49.096 0.0025 
383 1 0.00487535 -0.0186901 0.00667369 0 0 0 -0.0444215 -0.580165 -0.711506 -0.0117 0.00945844 -0.00328774 -7.1796 -23.4389 -47.761 0.0025 
340 1 0.0106808 -0.0153301 0.00825219 0 0 0 -0.116898 -0.0370098 -0.392623 -0.158788 0.0297119 -0.0504103 -10.2441 -34.5774 13.2949 0.0025 
54 1 0.0151963 -0.0162254 0.00989919 0 0 0 0.0294831 -0.175584 0.0778631 -0.0832078 -0.0289151 -0.129081 54.1454 39.5699 -4.45078 0.0025 
356 1 0.0251817 -0.0186738 0.00764452 0 0 0 0.471683 0.447608 -0.951564 0 0 -0.00160516 22.6869 -28.7835 68.0306 0.0025 
1 1 0.0355122 -0.0149188 0.0084486 0 0 0 0.389018 -0.148564 -0.542343 -0.0334286 -0.169215 0.0747359 -0.596939 -0.626096 15.2017 0.0025 
270 1 -0.0299941 -0.0106383 0.00744606 0 0 0 0.134827 0.144728 -0.0338952 -0.0525561 -0.0136069 0.10105 42.8803 122.712 28.067 0.0025 
236 1 -0.0198161 -0.0130375 0.00875953 0 0 0 -0.531127 -0.477729 -0.1022 0.0682871 -0.0411602 0.138244 57.3281 24.1321 17.8472 0.0025 
442 1 0.00273909 -0.0140838 0.00744241 0 0 0 -0.00209947 0.0102343 -0.248365 0.00278061 -0.00261581 -0.00542167 -17.9781 1.73322 14.4805 0.0025 
401 1 0.00721085 -0.0119145 0.00696859 0 0 0 -0.313341 0.08895 -0.0162159 -0.0428458 -0.105304 -0.000960657 53.761 8.12679 -70.4417 0.0025 
166 1 0.0192944 -0.0127125 0.00736697 0 0 0 -0.372945 -0.409038 0.183887 0.00622361 -0.0211638 0.0431918 85.8406 -78.6109 -5.84407 0.0025 
59 1 0.0363582 -0.0104422 0.00669564 0 0 0 0.233214 0.313884 0.0475938 0.0334286 0.169215 -0.0779463 -20.0056 -97.6217 80.8733 0.0025 
322 1 0.0448538 -0.0139083 0.00793445 0 0 0 -0.0650788 -0.580953 -0.249534 0 0 -0.00160516 116.29 -50.987 -61.5204 0.0025 
136 1 -0.0465504 -0.00926109 0.00782725 0 0 0 -0.485836 0.16762 -0.444226 0.00017615 -0.00377574 0.00393301 120.334 -65.4239 -38.413 0.0025 