ITEM: TIMESTEP
2400
ITEM: NUMBER OF ATOMS
1800
ITEM: BOX BOUNDS mm mm mm
-0.05 0.05
-0.05 0.05
0 0.15
ITEM: ATOMS id type x y z ix iy iz vx vy vz fx fy fz omegax omegay omegaz radius 
189 1 0.00299544 -0.0455623 0.00347896 0 0 0 0.10928 -0.28344 0.341802 0 0 -0.00160516 16.2581 9.80471 1.06755 0.0025 
85 1 -0.00880233 -0.0411015 0.00318922 0 0 0 -0.322631 -0.672901 0.0535911 0 0 -0.00160516 18.5593 43.0154 -48.7134 0.0025 
409 1 0.0159128 -0.035949 0.00263732 0 0 0 0.240492 0.147757 0.435084 0 0 -0.00160516 -37.9361 65.6103 -1.25182 0.0025 
37 1 -0.0204614 -0.0324966 0.00417532 0 0 0 0.0327994 -0.0322234 0.544428 0 0 -0.00160516 22.9312 3.8443 7.71353 0.0025 
18 1 -0.00933892 -0.0355506 0.00299892 0 0 0 -0.0566943 0.107097 0.253331 0 0 -0.00160516 69.2349 14.8365 -22.7769 0.0025 
257 1 0.00250369 -0.0353196 0.00286619 0 0 0 -0.00153439 -0.33662 0.29794 0 0 -0.00160516 42.9742 -23.341 -11.8937 0.0025 
234 1 0.0087271 -0.0334772 0.00274402 0 0 0 0.0803331 -0.145841 -0.56006 0 0 -0.00160516 49.7765 47.9725 -1.20917 0.0025 
389 1 0.024038 -0.0361674 0.00234872 0 0 0 0.180184 -0.439491 0.114003 -0.0025934 0.0191472 0.384836 -19.197 47.1784 -24.1476 0.0025 
294 1 -0.0215808 -0.0260305 0.00289346 0 0 0 -0.426465 -0.072463 0.0220269 0 0 -0.00160516 -8.85825 19.4077 9.45803 0.0025 
421 1 -0.0155952 -0.0252665 0.00341484 0 0 0 0.261806 0.101846 -0.000135977 0 0 -0.00160516 61.1477 24.4489 10.2039 0.0025 
141 1 -0.00276311 -0.027763 0.00279733 0 0 0 0.168943 -0.187196 0.226804 0.10757 0.0352759 -0.0580013 -8.37479 -13.6505 9.07122 0.0025 
66 1 0.0231379 -0.0271203 0.00270119 0 0 0 -0.0994048 -0.269097 0.426933 0 0 -0.00160516 0.0389124 1.58964 2.40234 0.0025 
433 1 -0.00918611 -0.0242129 0.00255456 0 0 0 0.191778 0.131117 -0.289427 0 0 -0.00160516 21.0732 -25.8273 -42.0198 0.0025 
225 1 0.00213351 -0.0222103 0.00311497 0 0 0 0.0556354 0.202664 -0.0838911 0 0 -0.00160516 38.4512 -31.808 6.97787 0.0025 
102 1 -0.0365339 -0.0189805 0.00490766 0 0 0 -0.26047 -0.192544 0.487256 0 0 -0.00160516 -0.384615 -14.9606 38.8075 0.0025 
10 1 -0.0287104 -0.0206858 0.00396318 0 0 0 -0.124233 0.048737 0.470843 -0.216242 0.0183907 -0.091762 -17.6545 4.13885 -4.86532 0.0025 
32 1 0.00612282 -0.0192204 0.00249361 0 0 0 -0.221679 -0.492168 0.0373266 7.67094e-05 0.000127311 0.00136755 14.1292 21.4729 -7.70265 0.0025 
15 1 -0.0190339 -0.0172662 0.00380635 0 0 0 -0.208871 -0.00057661 0.174296 0 0 -0.00160516 -46.7633 66.0285 -2.75819 0.0025 
448 1 0.0232801 -0.0164411 0.00284761 0 0 0 0.135432 -0.144193 -0.36065 0 0 -0.00160516 109.902 31.2546 -20.9754 0.0025 
104 1 0.0333768 -0.0167667 0.00265138 0 0 0 0.285358 0.0382914 0.369393 0 0 -0.00160516 27.4387 17.1288 -46.3468 0.0025 
331 1 -0.0193094 -0.0122055 0.00407888 0 0 0 0.272043 0.213622 -0.137458 0 0 -0.00160516 -19.1988 -30.883 35.8148 0.0025 
158 1 -0.0099353 -0.0105342 0.0023156 0 0 0 -0.194959 0.269789 0.0438606 0.0126514 -0.0228638 0.521009 5.9865 -15.652 -48.8742 0.0025 
105 1 -0.0463625 -0.00715904 0.00293496 0 0 0 -0.490383 0.142986 0.438746 0 0 -0.00160516 -37.8112 -52.5215 -4.16316 0.0025 
238 1 -0.0325429 -0.00895371 0.00366165 0 0 0 0.0800215 0.284198 0.000272033 0 0 -0.00160516 -4.43168 -46.6849 -6.18321 0.0025 
347 1 0.00328512 -0.00855104 0.00253727 0 0 0 0.314292 0.0570592 0.445693 0 0 -0.00160516 -26.4533 -7.19637 37.6542 0.0025 
202 1 0.00969037 -0.00674883 0.00256094 0 0 0 -0.293556 0.0660933 -0.11537 -0.0720793 -0.0229359 -0.0567804 25.5816 47.7492 -21.6675 0.0025 
2 1 0.0226127 -0.0101571 0.0030502 0 0 0 0.17743 -0.28573 -0.00730251 0 0 -0.00160516 -36.6529 -92.8549 -19.4558 0.0025 
246 1 -0.0371404 -0.00216587 0.00431732 0 0 0 0.186653 0.188224 0.495207 0 0 -0.00160516 -42.3233 -0.592864 -11.7496 0.0025 
252 1 -0.021238 -0.00125206 0.00288856 0 0 0 0.237865 0.347966 0.0977389 0 0 -0.00160516 4.99448 28.6276 8.96694 0.0025 
263 1 0.0226713 -0.00102022 0.00297174 0 0 0 0.376703 0.034358 0.452149 -0.00910332 -0.0205272 -0.00466685 0.393238 41.995 56.125 0.0025 
305 1 0.0333728 -0.000638571 0.00336976 0 0 0 0.226067 0.21845 0.390709 0 0 -0.00160516 -33.5551 27.5972 22.9413 0.0025 
255 1 -0.00352489 -0.0449512 0.00468954 0 0 0 0.0406299 -0.517504 -0.0524264 0 0 -0.00160516 -28.4402 -16.7894 -8.79687 0.0025 
103 1 -0.014646 -0.0425037 0.00533266 0 0 0 -0.254583 -0.548681 -0.0831807 0 0 -0.00160516 -35.9662 17.6695 -8.87134 0.0025 
241 1 0.00510243 -0.0398641 0.0069948 0 0 0 0.279637 0.150588 -0.317975 0 0 -0.00160516 89.0262 25.455 -7.87977 0.0025 
101 1 0.0103673 -0.0382212 0.00553941 0 0 0 -0.154991 -0.0470747 -0.510298 0 0 -0.00160516 5.92138 -12.2342 1.51864 0.0025 
186 1 0.0208844 -0.0351721 0.00656188 0 0 0 0.0875179 0.314866 0.356673 0 0 -0.00160516 -29.9229 56.7136 -28.5398 0.0025 
438 1 -0.0143797 -0.0303226 0.00534772 0 0 0 -0.0655793 -0.310764 -0.476471 0 0 -0.00160516 0.355058 24.4946 30.2018 0.0025 
354 1 -0.00706142 -0.0290062 0.00481573 0 0 0 -0.468991 0.182441 -0.354205 -0.10757 -0.0352759 0.0547909 2.33582 24.6767 35.8169 0.0025 
126 1 0.0056431 -0.0292737 0.00610596 0 0 0 -0.0956882 0.205815 -0.0813364 0 0 -0.00160516 7.31958 7.2645 -9.92306 0.0025 
369 1 0.0307521 -0.0304641 0.00654455 0 0 0 0.384372 -0.195594 0.0754865 0 0 -0.00160516 -44.5676 33.9125 29.7987 0.0025 
95 1 -0.0252136 -0.0283991 0.00566311 0 0 0 -0.46609 -0.153259 0.276516 0 0 -0.00160516 -8.70435 -34.3528 1.64611 0.0025 
307 1 0.0143691 -0.0267227 0.00353997 0 0 0 0.832937 -0.073576 -0.524593 0 0 -0.00160516 53.369 13.6452 -12.8454 0.0025 
218 1 -0.00391805 -0.0230563 0.00428236 0 0 0 0.450034 -0.242586 0.141998 0 0 -0.00160516 2.13248 -29.4911 1.21241 0.0025 
134 1 0.019676 -0.0222235 0.00582185 0 0 0 -0.380677 -0.16638 -0.230493 -0.0217197 -0.011965 -0.0329847 30.6485 -10.8179 17.1156 0.0025 
309 1 0.0280169 -0.0255186 0.00390684 0 0 0 -0.278889 -0.439815 -0.609737 0 0 -0.00160516 -59.9936 39.5816 18.5449 0.0025 
380 1 -0.0142903 -0.0202315 0.00463633 0 0 0 0.640574 0.375592 -0.347063 0 0 -0.00160516 22.719 -53.159 -11.4724 0.0025 
40 1 -0.00897955 -0.0188622 0.00360707 0 0 0 -0.0701085 0.0694013 -0.672783 0 0 -0.00160516 -3.78927 -4.35233 0.581846 0.0025 
386 1 0.0276869 -0.0199419 0.00271648 0 0 0 0.178159 -0.116179 -0.375863 0 0 -0.00160516 -15.0113 11.3676 -14.4405 0.0025 
322 1 0.0377578 -0.0173581 0.0063437 0 0 0 0.190113 0.355918 0.100753 0 0 -0.00160516 19.7585 5.91869 18.2903 0.0025 
231 1 -0.042185 -0.0165338 0.00709848 0 0 0 -0.621901 -0.323172 -0.139602 0 0 -0.00160516 2.49612 -8.87865 -6.34482 0.0025 
336 1 -0.0242409 -0.0144035 0.00248638 0 0 0 -0.140761 0.33082 0.576996 6.81304e-05 -0.000135107 0.0014211 -56.1511 -17.8587 -1.38879 0.0025 
321 1 -0.00475889 -0.0169851 0.00571322 0 0 0 -0.219666 -0.251419 -0.465595 0 0 -0.00160516 -9.70944 9.14192 -15.6479 0.0025 
405 1 0.00183188 -0.0164983 0.00335176 0 0 0 -0.347418 -0.188688 -0.0909032 0 0 -0.00160516 -5.48501 57.8592 7.75902 0.0025 
7 1 0.0113303 -0.0142933 0.00418582 0 0 0 0.175124 0.347907 -0.26582 -0.00750341 0.00200791 -0.000936248 -25.1657 7.16267 9.60162 0.0025 
142 1 0.0160742 -0.0156867 0.00354105 0 0 0 0.0467507 0.170935 -0.651489 0.0115161 -0.0275038 -0.0133567 38.4803 -1.64541 -11.6296 0.0025 
445 1 -0.0136252 -0.0127169 0.00674466 0 0 0 -0.17711 0.102566 0.445542 0 0 -0.00160516 -17.6623 0.18512 -22.4576 0.0025 
140 1 0.0204799 -0.0145744 0.00744256 0 0 0 -0.290809 0.136807 0.724493 0 0 -0.00160516 -27.3726 46.6894 -8.56595 0.0025 
237 1 0.0272729 -0.0138231 0.00493662 0 0 0 -0.00801866 -0.0311013 -0.738002 -0.0089409 -0.035296 -0.00536977 1.52109 -0.414986 0.271101 0.0025 
362 1 0.0330862 -0.0132806 0.00679106 0 0 0 -0.0154525 -0.421744 -0.116294 0 0 -0.00160516 -8.33283 17.3572 -5.59337 0.0025 
122 1 0.0391408 -0.0120493 0.00506677 0 0 0 0.547582 -0.282014 0.00449678 0 0 -0.00160516 -10.0435 25.3172 29.4149 0.0025 
222 1 -0.00452207 -0.00962108 0.00298976 0 0 0 0.102791 0.0524755 -0.243045 0 0 -0.00160516 16.6453 -92.9681 22.6802 0.0025 
20 1 0.0284354 -0.0090593 0.0056889 0 0 0 -0.296896 -0.204226 0.43633 0.0089409 0.035296 0.00215946 28.6901 46.822 22.4059 0.0025 
425 1 0.0345432 -0.0077322 0.00243671 0 0 0 0.179768 -0.105339 -0.378299 -0.00025329 0.00561845 0.110878 -25.7351 69.6563 -1.9383 0.0025 
342 1 -0.0225933 -0.00577105 0.0065992 0 0 0 0.226412 -0.698411 0.0774465 0 0 -0.00160516 37.5035 -31.3627 46.9533 0.0025 
328 1 -0.0134555 -0.00526836 0.00688706 0 0 0 0.0344157 -0.500876 0.233707 0 0 -0.00160516 3.33884 55.765 12.7442 0.0025 
117 1 -0.00723895 -0.00419818 0.00708819 0 0 0 -0.256722 0.00604898 -0.111811 0 0 -0.00160516 1.35895 47.2619 1.50153 0.0025 
24 1 0.0133586 -0.00533956 0.00552804 0 0 0 -0.0899718 0.388471 0.10187 0.0720793 0.0229359 0.05357 -11.9988 7.80494 1.01457 0.0025 
408 1 0.0179737 -0.00681073 0.00363001 0 0 0 -0.0961828 -0.0729556 -0.535957 0 0 -0.00160516 3.63918 -4.23513 2.87411 0.0025 
147 1 0.0034065 -0.00257737 0.00641435 0 0 0 0.51335 0.253943 -0.0870803 0 0 -0.00160516 46.1186 -6.12486 -42.0573 0.0025 
150 1 -0.00333344 -0.0401701 0.00764279 0 0 0 0.0217644 -0.0738071 -0.628227 0 0 -0.00160516 -47.298 -8.60696 -1.26804 0.0025 
413 1 -0.0242892 -0.0388057 0.00895746 0 0 0 -0.252511 -0.462439 0.0733281 0 0 -0.00160516 40.87 -22.3167 3.49214e-14 0.0025 
444 1 -0.0112973 -0.0333206 0.00815277 0 0 0 0.321665 0.0660636 -0.0439732 0 0 -0.00160516 -57.0995 0.74641 5.63018 0.0025 
28 1 -0.00521056 -0.0320627 0.00998868 0 0 0 0.331958 -0.156421 0.486245 0 0 -0.00160516 -44.218 17.268 12.6028 0.0025 
29 1 0.00876832 -0.0332453 0.00819304 0 0 0 0.200114 -0.197365 0.655809 0 0 -0.00160516 21.6634 21.5381 -1.55196 0.0025 
244 1 -0.029417 -0.0303773 0.00760366 0 0 0 -0.273843 -0.553399 -0.0418852 0 0 -0.00160516 40.707 -8.7189 13.1699 0.0025 
220 1 0.0188076 -0.0306869 0.00747555 0 0 0 0.314754 -0.29802 -0.571039 0 0 -0.00160516 12.59 -15.6207 23.1832 0.0025 
434 1 -0.0200441 -0.0280295 0.00868085 0 0 0 -0.0857074 0.119226 -0.741151 0 0 -0.00160516 72.7895 -2.66808 39.8877 0.0025 
378 1 -0.0113203 -0.02717 0.00833643 0 0 0 0.141993 0.115925 -0.568607 0 0 -0.00160516 -10.0288 3.79693 5.89574 0.0025 
291 1 -0.00672498 -0.0264615 0.0105651 0 0 0 -0.494392 -0.0244773 0.0777224 0 0 -0.00160516 -41.7216 -33.9334 -21.3882 0.0025 
70 1 0.00243531 -0.0265854 0.00908253 0 0 0 -0.234769 0.136968 -0.351787 0 0 -0.00160516 12.7838 25.4949 -30.9316 0.0025 
373 1 0.0086873 -0.0274843 0.0100475 0 0 0 0.17691 -0.103663 0.149411 0 0 -0.00160516 -12.1149 -43.1751 -29.5158 0.0025 
179 1 0.0180718 -0.025267 0.00981398 0 0 0 -0.0546435 -0.232359 0.664022 0 0 -0.00160516 -5.56763 12.3721 10.006 0.0025 
132 1 0.0302806 -0.0254306 0.00844867 0 0 0 0.162621 -0.0291537 -0.351141 0 0 -0.00160516 -14.9204 12.1021 7.2331 0.0025 
260 1 -0.0365758 -0.0218034 0.01013 0 0 0 -0.118783 -0.0762826 0.206255 0 0 -0.00160516 -1.92436 5.88965 -3.60457 0.0025 
365 1 -0.0241436 -0.0210484 0.00560461 0 0 0 -0.22874 0.141951 -0.555847 0.216242 -0.0183907 0.0885517 -32.234 28.387 -16.1506 0.0025 
195 1 -0.016246 -0.0233657 0.00921988 0 0 0 -0.155265 -0.383592 0.0725763 0.0257593 0.090717 -0.0992325 27.6062 -32.3182 -9.9943 0.0025 
87 1 0.00448003 -0.0209095 0.00807551 0 0 0 -0.0209604 -0.125102 -0.579254 0 0 -0.00160516 -18.3079 44.1894 -2.54668 0.0025 
339 1 0.0404498 -0.0243619 0.00933502 0 0 0 0.5038 -0.301927 0.0792448 0 0 -0.00160516 15.1329 44.6225 10.0543 0.0025 
306 1 -0.0288777 -0.0189932 0.00958354 0 0 0 0.0734871 -0.0913354 -0.279362 0 0 -0.00160516 22.3687 36.0851 20.7092 0.0025 
346 1 0.0106019 -0.0194019 0.00677231 0 0 0 0.375862 0.161939 -0.6722 0 0 -0.00160516 -5.47017 16.6893 -10.222 0.0025 
313 1 0.0282593 -0.018074 0.00886117 0 0 0 0.145361 0.504819 -0.0851837 0 0 -0.00160516 -39.8632 1.44929 -6.60797 0.0025 
205 1 0.0330378 -0.0203923 0.00768761 0 0 0 0.332736 -0.484762 0.12637 0 0 -0.00160516 -1.4826 -32.0503 -19.99 0.0025 
74 1 -0.027197 -0.0141356 0.00681663 0 0 0 -0.0596318 0.17426 -0.47401 0 0 -0.00160516 37.1694 4.8143 31.0631 0.0025 
293 1 -0.0170445 -0.0168865 0.00937717 0 0 0 0.349627 -0.0216598 -0.0539739 0.0262096 0.0288167 -0.0295577 -0.572794 -10.765 -40.6766 0.0025 
159 1 0.0170888 -0.018533 0.0101007 0 0 0 0.144889 -0.271995 0.215848 -0.0425779 0.0781721 -0.0830654 47.4274 -2.85869 -7.45033 0.0025 
196 1 -0.0377198 -0.0145768 0.010843 0 0 0 -0.241237 -0.473507 0.456781 0 0 -0.00160516 -8.53524 36.7026 17.497 0.0025 
449 1 -0.0226951 -0.0107621 0.0076349 0 0 0 -0.180313 0.253729 0.182514 0 0 -0.00160516 52.7049 -16.1973 9.1073 0.0025 
22 1 -0.00721649 -0.0117326 0.00704129 0 0 0 0.410923 -0.0435779 -0.170185 0 0 -0.00160516 13.944 20.1604 -10.1366 0.0025 
383 1 0.00559857 -0.0136462 0.00735723 0 0 0 -0.0996324 -0.373958 -0.0868357 0 0 -0.00160516 -31.9751 -23.2345 -1.5468 0.0025 
80 1 0.0155627 -0.0112162 0.00564534 0 0 0 0.148119 0.0622469 -0.536884 -0.0040127 0.0254959 0.00947751 0.273408 8.1263 4.08024 0.0025 
292 1 -0.0402055 -0.0112637 0.00723974 0 0 0 -0.341278 -0.419405 -0.49736 0.00164907 0.000264615 -0.00132469 -8.23631 11.0822 31.4473 0.0025 
439 1 -0.0352919 -0.01068 0.00792183 0 0 0 0.100227 0.134191 -0.0552967 0.0029292 -0.0876643 0.0026961 59.4175 -72.4362 65.5241 0.0025 
261 1 -0.0275162 -0.00875502 0.00708184 0 0 0 -0.0732278 0.543595 -0.174565 0 0 -0.00160516 56.2434 -6.5757 -34.3069 0.0025 
49 1 -0.0165713 -0.00897588 0.0110489 0 0 0 -0.253089 -0.367447 0.0452052 0 0 -0.00160516 -89.5115 36.0725 -9.55192 0.0025 
21 1 0.00408651 -0.007593 0.008343 0 0 0 0.153615 0.150234 0.216594 0 0 -0.00160516 32.5202 -24.6967 9.5173 0.0025 
240 1 0.0106114 -0.010664 0.00850261 0 0 0 -0.0921719 -0.329416 0.125191 0 0 -0.00160516 32.951 -14.4525 22.0578 0.0025 
47 1 0.0361737 -0.00995678 0.00904775 0 0 0 -0.272538 0.252214 0.202668 0 0 -0.00160516 -42.0181 -49.5533 24.3793 0.0025 
289 1 0.0423382 -0.00885963 0.00920293 0 0 0 0.151971 -0.0805383 0.275274 0 0 -0.00160516 -7.33227 3.44932 -8.6208 0.0025 
221 1 -0.035664 -0.00576456 0.0078821 0 0 0 -0.104851 0.0936317 0.128057 -0.00457826 0.0873997 -0.00618688 -3.13127 6.68114 4.54618 0.0025 
367 1 -0.0297725 -0.00553989 0.0104755 0 0 0 -0.0620019 0.0220477 -0.00756992 0 0 -0.00160516 13.1687 -18.4463 -13.9289 0.0025 
61 1 -0.00219165 -0.00340044 0.00684473 0 0 0 -0.462982 0.221107 -0.412389 0 0 -0.00160516 11.1592 -68.6296 14.0771 0.0025 
188 1 0.0180053 -0.00369235 0.00850541 0 0 0 -0.0885745 0.164006 -0.751224 0.029519 -0.0356134 -0.011857 -5.2802 -6.19055 9.90911 0.0025 
393 1 0.0311121 -0.00532343 0.00773064 0 0 0 -0.188552 -0.100015 -0.397775 0 0 -0.00160516 -5.47623 -14.0554 -6.94929 0.0025 
1140 1 -0.0423449 -0.00164423 0.00619951 0 0 0 -0.219389 -0.463029 -0.454161 0 0 -0.00160516 9.74756 28.6873 7.29468 0.0025 
385 1 -0.0101761 -0.000959327 0.0117036 0 0 0 -0.196691 0.388617 0.359624 0.0843687 0.138072 -0.0435038 11.0454 13.3847 -6.77371 0.0025 
1027 1 0.033481 -0.0010448 0.00877698 0 0 0 0.235544 0.0917838 0.149717 0 0 -0.00160516 51.976 -8.48375 1.62625 0.0025 
110 1 0.0405822 -0.00219797 0.00750927 0 0 0 0.0467444 0.343058 -0.71152 0 0 -0.00160516 12.4108 26.5269 -19.9111 0.0025 
116 1 0.00428399 -0.0420269 0.0114619 0 0 0 0.194682 -0.466281 0.456203 0 0 -0.00160516 26.0512 8.19129 -7.99569 0.0025 
279 1 0.00936359 -0.0405973 0.0113229 0 0 0 0 0 -0.735391 0 0 -0.00160516 0 0 0 0.0025 
243 1 0.0174657 -0.0371045 0.0106758 0 0 0 -0.43111 -0.223015 0.146659 0 0 -0.00160516 19.6161 -44.3367 -1.62172 0.0025 
266 1 -0.0283132 -0.0334368 0.0122472 0 0 0 -0.296727 -0.291304 0.205505 0 0 -0.00160516 32.6219 -12.8048 5.66859 0.0025 
410 1 -0.00786902 -0.0352399 0.0137693 0 0 0 -0.222443 0.116499 -0.00523938 0 0 -0.00160516 12.6909 -47.0869 2.62559 0.0025 
113 1 -0.0221648 -0.0307251 0.0124704 0 0 0 0.061541 -0.250483 -0.306381 0 0 -0.00160516 -22.3306 -55.3974 -10.8699 0.0025 
60 1 -1.59044e-05 -0.0315444 0.012275 0 0 0 -0.0395644 -0.13408 -0.518844 0 0 -0.00160516 5.06293 -10.3166 -5.4621 0.0025 
440 1 0.0126102 -0.0327133 0.0113763 0 0 0 -0.363746 -0.468355 -0.0673572 0 0 -0.00160516 36.8072 -25.008 3.27564 0.0025 
332 1 0.0198312 -0.0300748 0.0124145 0 0 0 0.329498 -0.0921098 -0.137749 0 0 -0.00160516 -11.1513 -48.5345 -11.8749 0.0025 
280 1 0.0252263 -0.0281365 0.0086273 0 0 0 0 0 -0.735391 0 0 -0.00160516 0 0 0 0.0025 
11 1 -0.0254879 -0.0249673 0.0119457 0 0 0 -0.362304 -0.0874885 -0.698826 0 0 -0.00160516 -41.1077 16.8816 -22.128 0.0025 
52 1 -0.00392192 -0.0218772 0.0108854 0 0 0 0.0852949 0.196927 -0.662257 0 0 -0.00160516 -8.33854 5.49766 -5.07426 0.0025 
30 1 0.0125637 -0.0239864 0.0101102 0 0 0 -0.374058 0.0226628 -0.417376 0 0 -0.00160516 23.8914 78.3673 -20.3495 0.0025 
424 1 0.0190148 -0.0215677 0.0134536 0 0 0 0.315591 0.16675 -0.119172 0.0425779 -0.0781721 0.0798551 -3.49304 27.9854 -5.64661 0.0025 
182 1 -0.0199272 -0.0196887 0.0122707 0 0 0 0.302724 0.117651 -0.0754481 -0.0262096 -0.0288167 0.0263474 6.84548 27.8985 -26.8 0.0025 
265 1 -0.0128042 -0.0211346 0.0141281 0 0 0 0.131147 -0.539733 0.203383 0 0 -0.00160516 4.74254 73.9411 14.2069 0.0025 
13 1 0.022535 -0.0206537 0.00955031 0 0 0 0.398393 0.254137 -0.172699 0.0217197 0.011965 0.0297744 -3.0906 6.6995 11.3638 0.0025 
187 1 -0.0213136 -0.0147684 0.011387 0 0 0 -0.628286 0.321939 -0.352068 0 0 -0.00160516 -11.0113 -12.2975 16.0642 0.0025 
12 1 0.00342642 -0.0182764 0.0123569 0 0 0 0.00508748 0.0915457 0.251394 0.0115034 -0.00362723 -0.0140508 60.2831 23.7659 -5.5046 0.0025 
326 1 -0.00912545 -0.0125926 0.0118795 0 0 0 -0.0848692 0.211984 0.120445 0 0 -0.00160516 -47.2989 12.0842 -9.36721 0.0025 
65 1 -0.00117179 -0.0111807 0.010141 0 0 0 -0.195198 0.0519573 -0.240702 0 0 -0.00160516 58.5313 12.6212 -31.755 0.0025 
211 1 -0.0334444 -0.00777512 0.0135999 0 0 0 -0.296685 0.154329 -0.0417754 0 0 -0.00160516 22.3095 -25.1606 24.7732 0.0025 
98 1 -0.0216739 -0.00704958 0.0124482 0 0 0 -0.0382287 0.369072 -0.501326 0 0 -0.00160516 -21.2182 0.074632 -3.58392 0.0025 
338 1 0.0207856 -0.00887883 0.0103868 0 0 0 0.0125778 -0.153797 -0.20355 0 0 -0.00160516 -43.9483 -15.9673 20.3919 0.0025 
136 1 -0.0408481 -0.00649292 0.0109458 0 0 0 -0.0495243 0.0942262 -0.703797 0 0 -0.00160516 6.48925 7.679 0.681812 0.0025 
191 1 0.00800544 -0.00400872 0.0111483 0 0 0 0.218408 0.582234 -0.240652 0 0 -0.00160516 -27.5381 -20.725 16.3798 0.0025 
38 1 0.0133814 -0.0047506 0.0111182 0 0 0 -0.237619 -0.116995 -0.653427 0 0 -0.00160516 6.12104 2.03452 0.418037 0.0025 
92 1 0.0239476 -0.005016 0.00896495 0 0 0 0.157511 -0.0223045 -0.78864 0 0 -0.00160516 -5.80096 20.6069 12.6009 0.0025 
138 1 -0.0456307 -0.00184723 0.012437 0 0 0 -0.398346 0.21546 0.109231 0 0 -0.00160516 -4.29194 -40.3919 1.98472 0.0025 
42 1 -0.0259628 -0.00238602 0.0127204 0 0 0 -0.444395 0.143524 -0.401142 0 0 -0.00160516 -18.2517 -2.23021 -2.09153 0.0025 
184 1 -0.00463601 -0.00277112 0.0112954 0 0 0 0.205392 0.339363 -0.310983 -0.067421 -0.0285593 -0.00554074 37.7251 0.315161 6.58713 0.0025 
1021 1 -3.98418e-05 -0.00101887 0.0117292 0 0 0 0.290056 -0.248973 0.212336 0.067421 0.0285593 0.00233042 3.1421 27.6647 4.68008 0.0025 
217 1 -0.0120284 -0.0386257 0.0158306 0 0 0 -0.350067 -0.134802 -0.400393 0 0 -0.00160516 17.3833 -2.16099 17.2949 0.0025 
416 1 -0.00115319 -0.0383214 0.0150957 0 0 0 0 0 -0.735391 0 0 -0.00160516 0 0 0 0.0025 
230 1 0.00571771 -0.0337403 0.013504 0 0 0 0 0 -0.735391 0 0 -0.00160516 0 0 0 0.0025 
286 1 -0.0169936 -0.0265492 0.0128803 0 0 0 0.491829 0.226283 0.0996506 -0.0257593 -0.090717 0.0960222 -20.2158 44.6284 -1.50321 0.0025 
78 1 -0.0305958 -0.0237853 0.013606 0 0 0 -0.0396126 -0.537598 -0.570605 0 0 -0.00160516 -4.63426 -27.5943 -15.3089 0.0025 
374 1 -0.00773225 -0.0204601 0.0142689 0 0 0 0 0 -0.735391 0 0 -0.00160516 0 0 0 0.0025 
109 1 0.0354925 -0.0212821 0.012958 0 0 0 0 0 -0.735391 0 0 -0.00160516 0 0 0 0.0025 
372 1 -0.0325516 -0.0147652 0.0127698 0 0 0 0 0 -0.735391 0 0 -0.00160516 0 0 0 0.0025 
6 1 -0.0200931 -0.0172748 0.0166949 0 0 0 0.126835 -0.361302 0.0270978 0 0 -0.00160516 -36.1497 -11.7836 0.421095 0.0025 
226 1 -0.00459656 -0.0156451 0.0134895 0 0 0 0.23901 -0.0818223 -0.594396 0 0 -0.00160516 6.91066 -1.21773 -12.4209 0.0025 
366 1 0.0127349 -0.0148856 0.0135537 0 0 0 0 0 -0.735391 0 0 -0.00160516 0 0 0 0.0025 
121 1 -0.0287941 -0.011986 0.0161306 0 0 0 0.17232 -0.226793 -0.322774 0 0 -0.00160516 -1.14993 21.272 12.1695 0.0025 
151 1 0.0202748 -0.0130436 0.0133471 0 0 0 0 0 -0.735391 0 0 -0.00160516 0 0 0 0.0025 
233 1 0.0164836 -0.00883524 0.0136708 0 0 0 0.221682 -0.395725 -0.487399 0 0 -0.00160516 -0.659389 13.1589 21.5872 0.0025 
99 1 0.0391993 -0.00665746 0.0154758 0 0 0 0.106035 0.204401 0.266534 0 0 -0.00160516 -34.3378 49.0159 -23.7332 0.0025 
381 1 -0.038805 -0.00677251 0.0165792 0 0 0 0.183866 0.0823677 -0.343783 0.0281471 0.0501618 -0.0518303 24.0475 6.72669 -8.07523 0.0025 
251 1 -0.0125527 -0.00511085 0.0127325 0 0 0 0.304219 0.232033 -0.388277 -0.0843687 -0.138072 0.0402935 -15.677 18.1325 5.59727 0.0025 
144 1 -0.00675855 -0.00558011 0.0148701 0 0 0 -0.210495 -0.281785 -0.30138 0 0 -0.00160516 20.4946 -17.9331 -1.70088 0.0025 
287 1 0.00363247 -0.0053133 0.013653 0 0 0 -0.294892 -0.0443629 -0.515543 0 0 -0.00160516 9.53551 -11.4452 10.4791 0.0025 
426 1 0.0288024 -0.00515885 0.0130977 0 0 0 0.266418 -0.0712501 -0.519099 0 0 -0.00160516 -11.124 -2.10283 13.0091 0.0025 
376 1 0.0436841 -0.00296702 0.0150123 0 0 0 0.504826 0.232827 0.123858 0 0 -0.00160516 34.2391 -9.62519 -27.4897 0.0025 
368 1 0.0224126 -0.00293345 0.014268 0 0 0 0 0 -0.735391 0 0 -0.00160516 0 0 0 0.0025 
271 1 -0.0168054 -0.0367308 0.0191616 0 0 0 0 0 -0.735391 0 0 -0.00160516 0 0 0 0.0025 
247 1 0.0120735 -0.0378634 0.0171426 0 0 0 0 0 -0.735391 0 0 -0.00160516 0 0 0 0.0025 
82 1 -0.0246343 -0.0332852 0.0164617 0 0 0 -0.348176 -0.43639 -0.0128391 0 0 -0.00160516 18.9589 -37.4696 -13.4986 0.0025 
167 1 -0.00938307 -0.0331163 0.0183429 0 0 0 0 0 -0.735391 0 0 -0.00160516 0 0 0 0.0025 
417 1 0.00184617 -0.0332448 0.0190138 0 0 0 0 0 -0.735391 0 0 -0.00160516 0 0 0 0.0025 
81 1 -0.0171314 -0.0311056 0.0161695 0 0 0 0 0 -0.735391 0 0 -0.00160516 0 0 0 0.0025 
86 1 -0.00364772 -0.0311055 0.0173006 0 0 0 0 0 -0.735391 0 0 -0.00160516 0 0 0 0.0025 
320 1 0.0117035 -0.0299082 0.0157848 0 0 0 -0.285841 0.00435535 -0.751281 0 0 -0.00160516 -0.187029 -14.1167 -0.492038 0.0025 
53 1 0.0168046 -0.0300704 0.0174088 0 0 0 -0.105942 -0.0538568 0.0580927 0 0 -0.00160516 -26.2724 -42.7947 -15.4849 0.0025 
358 1 0.028075 -0.0294776 0.0187113 0 0 0 0 0 -0.735391 0 0 -0.00160516 0 0 0 0.0025 
268 1 0.000754363 -0.0282112 0.01854 0 0 0 0 0 -0.735391 0 0 -0.00160516 0 0 0 0.0025 
412 1 0.0212692 -0.0266878 0.0166353 0 0 0 0 0 -0.735391 0 0 -0.00160516 0 0 0 0.0025 
303 1 0.0333072 -0.02529 0.0189326 0 0 0 0 0 -0.735391 0 0 -0.00160516 0 0 0 0.0025 
314 1 -0.0233574 -0.0247604 0.0186787 0 0 0 0.0117456 -0.0125863 -0.291291 0 0 -0.00160516 0.765931 21.768 0.59738 0.0025 
394 1 -0.0176179 -0.0244333 0.018429 0 0 0 0 0 -0.735391 0 0 -0.00160516 0 0 0 0.0025 
165 1 -0.00816117 -0.0249126 0.0167739 0 0 0 0 0 -0.735391 0 0 -0.00160516 0 0 0 0.0025 
262 1 0.0164286 -0.02461 0.0175709 0 0 0 0 0 -0.735391 0 0 -0.00160516 0 0 0 0.0025 
58 1 -0.0310032 -0.0199857 0.0189235 0 0 0 -0.092654 0.16921 -0.698806 0 0 -0.00160516 -3.63754 14.9577 -5.31059 0.0025 
75 1 0.00927504 -0.0196648 0.0160245 0 0 0 0 0 -0.735391 0 0 -0.00160516 0 0 0 0.0025 
402 1 -0.0381209 -0.0164224 0.0163295 0 0 0 0 0 -0.735391 0 0 -0.00160516 0 0 0 0.0025 
163 1 -0.0155176 -0.0148855 0.0161987 0 0 0 0 0 -0.735391 0 0 -0.00160516 0 0 0 0.0025 
23 1 -0.00788694 -0.0154263 0.018438 0 0 0 0 0 -0.735391 0 0 -0.00160516 0 0 0 0.0025 
334 1 -4.75706e-05 -0.0171855 0.0157567 0 0 0 -0.0010108 0.000318943 -0.734295 -0.0115034 0.00362723 0.0108405 -0.0219747 -0.0727117 0.000892886 0.0025 
273 1 0.0067159 -0.0154665 0.017292 0 0 0 0 0 -0.735391 0 0 -0.00160516 0 0 0 0.0025 
379 1 0.0170024 -0.0176005 0.0167722 0 0 0 0 0 -0.735391 0 0 -0.00160516 0 0 0 0.0025 
282 1 0.0331208 -0.0169471 0.0179038 0 0 0 0 0 -0.735391 0 0 -0.00160516 0 0 0 0.0025 
442 1 -0.0040361 -0.00986258 0.0177949 0 0 0 0 0 -0.735391 0 0 -0.00160516 0 0 0 0.0025 
79 1 0.00130303 -0.00746357 0.0181523 0 0 0 0 0 -0.735391 0 0 -0.00160516 0 0 0 0.0025 
270 1 -0.0282024 -0.00609541 0.0175393 0 0 0 0 0 -0.735391 0 0 -0.00160516 0 0 0 0.0025 
258 1 -0.0217636 -0.00336793 0.017283 0 0 0 0.41601 -0.0504008 -0.127558 0.0433854 0.0372216 -0.0669878 12.7046 32.2632 -3.77053 0.0025 
254 1 0.0280138 -0.00315551 0.0191628 0 0 0 0 0 -0.735391 0 0 -0.00160516 0 0 0 0.0025 
16 1 -0.024382 -0.0315284 0.0225685 0 0 0 0 0 -0.735391 0 0 -0.00160516 0 0 0 0.0025 
194 1 0.0176441 -0.0250623 0.0224848 0 0 0 0 0 -0.735391 0 0 -0.00160516 0 0 0 0.0025 
295 1 -0.00176722 -0.0233515 0.0201177 0 0 0 0 0 -0.735391 0 0 -0.00160516 0 0 0 0.0025 
201 1 -0.0155504 -0.0199324 0.0210835 0 0 0 0 0 -0.735391 0 0 -0.00160516 0 0 0 0.0025 
219 1 0.0132911 -0.0206687 0.0193528 0 0 0 0 0 -0.735391 0 0 -0.00160516 0 0 0 0.0025 
304 1 0.0215164 -0.0194478 0.0206565 0 0 0 0 0 -0.735391 0 0 -0.00160516 0 0 0 0.0025 
157 1 -0.0132417 -0.014473 0.0213248 0 0 0 0 0 -0.735391 0 0 -0.00160516 0 0 0 0.0025 
382 1 -0.0241065 -0.01156 0.0211718 0 0 0 0 0 -0.735391 0 0 -0.00160516 0 0 0 0.0025 
269 1 0.0154393 -0.0132093 0.0204398 0 0 0 0 0 -0.735391 0 0 -0.00160516 0 0 0 0.0025 
3 1 -0.0407705 -0.010102 0.0196472 0 0 0 -0.0382269 -0.0688507 -0.665099 -0.0281471 -0.0501618 0.04862 3.68624 -3.43306 -1.35788 0.0025 
397 1 -0.0115865 -0.00924135 0.0194777 0 0 0 0 0 -0.735391 0 0 -0.00160516 0 0 0 0.0025 
198 1 0.0152151 -0.00750632 0.0206538 0 0 0 0 0 -0.735391 0 0 -0.00160516 0 0 0 0.0025 
337 1 0.0286556 -0.00980629 0.0197398 0 0 0 0 0 -0.735391 0 0 -0.00160516 0 0 0 0.0025 
312 1 -0.0364221 -0.00545267 0.0219191 0 0 0 0 0 -0.735391 0 0 -0.00160516 0 0 0 0.0025 
181 1 -0.0244241 -0.00549498 0.0208484 0 0 0 -0.0308458 -0.0268823 -0.687649 -0.0433854 -0.0372216 0.0637775 0.921588 -2.80125 -0.981848 0.0025 
278 1 -0.0083623 -0.00510196 0.020883 0 0 0 0 0 -0.735391 0 0 -0.00160516 0 0 0 0.0025 
430 1 0.0321154 -0.00565084 0.0207624 0 0 0 0 0 -0.735391 0 0 -0.00160516 0 0 0 0.0025 
352 1 -0.0152367 -0.0394375 0.0247224 0 0 0 0 0 -0.735391 0 0 -0.00160516 0 0 0 0.0025 
73 1 -0.00729034 -0.0418445 0.0259942 0 0 0 0 0 -0.735391 0 0 -0.00160516 0 0 0 0.0025 
4 1 0.00454996 -0.0369502 0.0237293 0 0 0 0 0 -0.735391 0 0 -0.00160516 0 0 0 0.0025 
302 1 0.0123682 -0.0367172 0.0260364 0 0 0 0 0 -0.735391 0 0 -0.00160516 0 0 0 0.0025 
97 1 0.0218411 -0.035839 0.0252502 0 0 0 0 0 -0.735391 0 0 -0.00160516 0 0 0 0.0025 
8 1 -0.0150748 -0.0288508 0.0260523 0 0 0 0 0 -0.735391 0 0 -0.00160516 0 0 0 0.0025 
403 1 0.0117425 -0.0289875 0.022849 0 0 0 0 0 -0.735391 0 0 -0.00160516 0 0 0 0.0025 
62 1 0.0226184 -0.0287599 0.0237222 0 0 0 0 0 -0.735391 0 0 -0.00160516 0 0 0 0.0025 
223 1 0.0309134 -0.0271079 0.0232848 0 0 0 0 0 -0.735391 0 0 -0.00160516 0 0 0 0.0025 
145 1 -0.00806454 -0.0228854 0.026269 0 0 0 0 0 -0.735391 0 0 -0.00160516 0 0 0 0.0025 
68 1 0.00046029 -0.0244571 0.0259051 0 0 0 0 0 -0.735391 0 0 -0.00160516 0 0 0 0.0025 
76 1 0.00627037 -0.0244571 0.0250956 0 0 0 0 0 -0.735391 0 0 -0.00160516 0 0 0 0.0025 
161 1 0.0234118 -0.0216485 0.0248109 0 0 0 0 0 -0.735391 0 0 -0.00160516 0 0 0 0.0025 
296 1 -0.0303725 -0.0206483 0.0240933 0 0 0 0.0435264 -0.0038779 -0.71796 0 0 -0.00160516 10.8236 -6.89628 -2.08009 0.0025 
215 1 0.0170878 -0.0197797 0.023046 0 0 0 0 0 -0.735391 0 0 -0.00160516 0 0 0 0.0025 
436 1 -0.0163797 -0.0143819 0.0252741 0 0 0 0 0 -0.735391 0 0 -0.00160516 0 0 0 0.0025 
57 1 0.0021908 -0.017129 0.0238173 0 0 0 0 0 -0.735391 0 0 -0.00160516 0 0 0 0.0025 
391 1 0.012076 -0.01707 0.0263338 0 0 0 0 0 -0.735391 0 0 -0.00160516 0 0 0 0.0025 
149 1 0.0257473 -0.0151343 0.0232698 0 0 0 0 0 -0.735391 0 0 -0.00160516 0 0 0 0.0025 
450 1 0.0329497 -0.0150325 0.0248028 0 0 0 0 0 -0.735391 0 0 -0.00160516 0 0 0 0.0025 
404 1 -0.0300133 -0.0141115 0.0230036 0 0 0 0 0 -0.735391 0 0 -0.00160516 0 0 0 0.0025 
190 1 -0.00942885 -0.0128798 0.0256922 0 0 0 0 0 -0.735391 0 0 -0.00160516 0 0 0 0.0025 
9 1 -0.0206521 -0.007209 0.0241195 0 0 0 0 0 -0.735391 0 0 -0.00160516 0 0 0 0.0025 
119 1 -0.000705113 -0.0079185 0.0248753 0 0 0 0 0 -0.735391 0 0 -0.00160516 0 0 0 0.0025 
401 1 0.00351422 -0.0107138 0.024049 0 0 0 0 0 -0.735391 0 0 -0.00160516 0 0 0 0.0025 
406 1 0.0310975 -0.00989713 0.0250254 0 0 0 0 0 -0.735391 0 0 -0.00160516 0 0 0 0.0025 
360 1 -0.00792866 -0.00596927 0.0258416 0 0 0 0 0 -0.735391 0 0 -0.00160516 0 0 0 0.0025 
207 1 0.00416297 -0.00400936 0.0262962 0 0 0 0 0 -0.735391 0 0 -0.00160516 0 0 0 0.0025 
91 1 0.0369779 -0.00380053 0.0261048 0 0 0 0 0 -0.735391 0 0 -0.00160516 0 0 0 0.0025 
94 1 -0.0288499 -0.00288755 0.0251207 0 0 0 0 0 -0.735391 0 0 -0.00160516 0 0 0 0.0025 
212 1 0.0177821 -0.0359031 0.0288155 0 0 0 0 0 -0.735391 0 0 -0.00160516 0 0 0 0.0025 
411 1 -0.0183899 -0.0321922 0.0281975 0 0 0 0 0 -0.735391 0 0 -0.00160516 0 0 0 0.0025 
88 1 -0.00878326 -0.0326661 0.0272383 0 0 0 0 0 -0.735391 0 0 -0.00160516 0 0 0 0.0025 
115 1 0.00159461 -0.0321682 0.026657 0 0 0 0 0 -0.735391 0 0 -0.00160516 0 0 0 0.0025 
316 1 -0.0278733 -0.0310061 0.0280362 0 0 0 0 0 -0.735391 0 0 -0.00160516 0 0 0 0.0025 
213 1 0.0164712 -0.0266338 0.0279091 0 0 0 0 0 -0.735391 0 0 -0.00160516 0 0 0 0.0025 
44 1 0.0277383 -0.0234289 0.0271801 0 0 0 0 0 -0.735391 0 0 -0.00160516 0 0 0 0.0025 
107 1 0.0334735 -0.0229308 0.0295278 0 0 0 0 0 -0.735391 0 0 -0.00160516 0 0 0 0.0025 
229 1 -0.0305969 -0.0206126 0.0294022 0 0 0 -0.18889 -0.0741147 -0.570783 -0.0286906 -0.0138197 -0.119072 -23.7309 7.08517 -1.85206 0.0025 
345 1 -0.0208731 -0.0197314 0.0264939 0 0 0 0 0 -0.735391 0 0 -0.00160516 0 0 0 0.0025 
353 1 -0.00552571 -0.0178411 0.0276232 0 0 0 0 0 -0.735391 0 0 -0.00160516 0 0 0 0.0025 
370 1 0.0388239 -0.0157098 0.0277105 0 0 0 0 0 -0.735391 0 0 -0.00160516 0 0 0 0.0025 
55 1 -0.0337135 -0.0135999 0.0283761 0 0 0 0 0 -0.735391 0 0 -0.00160516 0 0 0 0.0025 
166 1 0.0246551 -0.0132545 0.028729 0 0 0 0 0 -0.735391 0 0 -0.00160516 0 0 0 0.0025 
137 1 -0.026789 -0.00877786 0.0277569 0 0 0 0 0 -0.735391 0 0 -0.00160516 0 0 0 0.0025 