ITEM: TIMESTEP
14400
ITEM: NUMBER OF ATOMS
1800
ITEM: BOX BOUNDS mm mm mm
-0.05 0.05
-0.05 0.05
0 0.15
ITEM: ATOMS id type x y z ix iy iz vx vy vz fx fy fz omegax omegay omegaz radius 
410 1 -0.00851288 -0.0467721 0.00252219 0 0 0 -0.0961517 -0.00501989 -0.146489 0.0115843 0.0529793 0.000316861 -19.602 7.70454 -0.312845 0.0025 
255 1 -0.00209402 -0.0472545 0.0026539 0 0 0 0.0542756 -0.119701 0.00182543 0 0 -0.00160516 23.0251 22.1457 -4.6453 0.0025 
217 1 -0.0162843 -0.0442005 0.0027105 0 0 0 0.0314488 0.158658 -0.0333576 0 0 -0.00160516 -3.89961 2.3943 -9.42894 0.0025 
28 1 0.0006576 -0.0428949 0.00248593 0 0 0 0.10355 0.0918559 -0.0478253 -0.000495408 -0.000307546 0.010057 -17.2924 10.0402 -9.32565 0.0025 
141 1 0.00568083 -0.0431731 0.00250896 0 0 0 0.0180289 -0.0122499 0.05478 0.0328947 0.0484019 -0.0205171 -9.59846 -4.65302 -21.5968 0.0025 
279 1 0.0157801 -0.0446416 0.00256885 0 0 0 -0.0109433 0.0151218 -0.00240233 0 0 -0.00160516 -17.0992 7.03399 9.82028 0.0025 
413 1 -0.0259097 -0.0398164 0.00276836 0 0 0 -0.0592193 0.0852413 0.0239575 -0.019472 -0.00362185 -0.020785 0.840232 -4.38438 2.98148 0.0025 
37 1 -0.0213612 -0.0424072 0.00245637 0 0 0 0.0676477 -0.000586907 0.0563491 -0.00291032 0.000561434 0.0576744 -6.57167 -7.99049 -0.0516837 0.0025 
18 1 -0.0108376 -0.0418564 0.00255877 0 0 0 0.0397222 -0.105797 0.0578617 0 0 -0.00160516 -9.21114 4.46541 26.1411 0.0025 
218 1 -0.00540535 -0.0426959 0.00244994 0 0 0 0.166241 0.0284027 0.0934732 0.00825945 -0.00138949 0.0465245 -8.4587 35.17 0.253 0.0025 
230 1 0.0114814 -0.0420696 0.00280772 0 0 0 0.0149909 -0.0941116 -0.101753 -0.0232481 -0.0176399 -0.0329929 27.0879 1.34738 -2.71087 0.0025 
409 1 0.0202523 -0.0423322 0.00245659 0 0 0 0.0332885 0.00652757 -0.0569746 -0.00556196 -0.00227018 0.0586215 3.91611 -6.04636 5.62612 0.0025 
389 1 0.0247776 -0.0404156 0.00333403 0 0 0 0.0972579 -0.063954 -0.0416586 0.00268261 0.00129573 -0.00103648 -23.9073 -19.4723 -3.47435 0.0025 
95 1 -0.0215598 -0.0373992 0.00269954 0 0 0 -0.0559645 -0.00752765 -0.0231529 0.0205881 0.00243898 -0.0118845 -10.3664 -10.271 -6.36183 0.0025 
103 1 -0.0167607 -0.0389743 0.00246252 0 0 0 -0.0240236 0.0870599 0.156328 0.00154072 -0.00166485 0.0437625 -25.0732 -0.381125 5.74372 0.0025 
438 1 -0.0121213 -0.0369357 0.00246383 0 0 0 0.0256287 -0.0986428 0.0675321 0.0188945 -0.0149213 0.0416533 17.6997 3.77897 -3.24682 0.0025 
167 1 -0.00703525 -0.0377353 0.00250689 0 0 0 -0.0533607 -0.0477739 -0.0360707 0 0 -0.00160516 -15.3742 6.57485 1.17231 0.0025 
85 1 -0.00204927 -0.0386313 0.00245918 0 0 0 -0.0110133 -0.0283509 0.0550254 0.000861334 -0.000778559 0.0519884 8.60035 -7.49602 -3.67351 0.0025 
268 1 0.00521683 -0.0382144 0.00286633 0 0 0 -0.0550004 0.0165236 0.0104208 0.0562067 -0.0464835 0.00314793 -1.42414 -14.8164 10.7548 0.0025 
126 1 0.0104021 -0.0371744 0.00269392 0 0 0 0.090844 0.0180592 0.0515835 0 0 -0.00160516 7.27311 -8.40747 7.76956 0.0025 
101 1 0.0165775 -0.0386123 0.00247341 0 0 0 0.027968 -0.00289506 -0.00794886 0.00848709 0.00381401 0.0136241 6.41709 1.3433 9.79818 0.0025 
309 1 0.0297438 -0.0365005 0.00256318 0 0 0 0.050501 -0.168454 -0.0916858 0 0 -0.00160516 1.95841 -2.38137 -0.0566731 0.0025 
10 1 -0.0333927 -0.0338293 0.00326716 0 0 0 -0.0622453 0.0104981 0.00281054 0.0309285 0.0288383 -0.002523 -1.71196 14.1807 -4.57547 0.0025 
244 1 -0.0287347 -0.0355458 0.00267737 0 0 0 -0.0766149 0.0118415 -0.0234261 0.00014935 -5.92711e-05 -0.0016172 -2.31305 -5.4106 2.36599 0.0025 
182 1 -0.0206271 -0.0324882 0.0026312 0 0 0 0.0236474 -0.0506933 -0.115451 3.02859e-05 0.000193817 -0.00160042 -1.79186 -16.6981 -1.85758 0.0025 
81 1 -0.0157322 -0.0335232 0.00249032 0 0 0 0.00948631 -0.0342467 0.0341532 -0.0192329 0.017372 0.00538667 0.546391 9.62687 18.6129 0.0025 
291 1 -0.00889244 -0.0328574 0.00253253 0 0 0 0.0141657 0.0155868 0.062899 0.0121249 -0.0118603 -0.0326728 33.7307 -5.22584 -2.1394 0.0025 
295 1 -0.00323895 -0.0336995 0.00267464 0 0 0 0.0161432 -0.000774723 -0.052164 -1.3496e-05 -9.5597e-05 -0.00206283 -2.0282 -13.3828 -14.6482 0.0025 
68 1 0.00165814 -0.0348127 0.00248903 0 0 0 0.113746 -0.00453368 -0.0320309 -0.054885 0.0517677 -0.0043061 11.2787 -2.23443 -1.55147 0.0025 
234 1 0.0145701 -0.0334468 0.00247654 0 0 0 0.0847913 -0.0787928 -0.141737 0.0435823 -0.0113313 0.0261094 -21.9152 24.1681 1.01895 0.0025 
213 1 0.0198671 -0.0343613 0.00249566 0 0 0 0.107085 -0.0249949 -0.0149523 -0.0207858 0.0109369 -0.0159618 -12.7818 -9.27608 27.7388 0.0025 
134 1 0.0248413 -0.0341396 0.00270631 0 0 0 0.0815629 -0.0135748 -0.0402727 0.0100139 0.000320624 -0.000694469 10.6809 4.79487 -26.118 0.0025 
369 1 0.0338175 -0.0323932 0.00265487 0 0 0 0.0332206 -0.0381143 -0.187701 0.00558625 0.0080464 -0.0193945 -13.6913 11.3166 -21.2957 0.0025 
306 1 -0.0368669 -0.0299751 0.00248986 0 0 0 -0.0185374 0.0378133 0.0162406 0.0099338 0.00695521 0.00470866 6.50274 19.6261 -23.4339 0.0025 
266 1 -0.0310887 -0.0293828 0.00257292 0 0 0 -0.00809988 0.0265423 0.0205465 -0.00613074 -0.00735592 -0.00244821 5.5469 -34.0658 -2.40765 0.0025 
113 1 -0.0258756 -0.0314188 0.00254489 0 0 0 0.137881 -0.0211403 -0.0542514 0.0427259 0.0118745 -0.0560226 13.7323 -4.26788 2.44114 0.0025 
265 1 -0.0126271 -0.0295944 0.00293139 0 0 0 0.0306928 -0.0658586 -0.0674175 -0.0271577 -0.00160491 -0.00737178 10.3368 1.36011 20.121 0.0025 
115 1 -0.00547011 -0.0291292 0.00243895 0 0 0 0.0193789 -0.00540359 -0.193755 0.0289759 -0.0170905 -0.0147258 -4.56478 2.85997 49.09 0.0025 
225 1 -0.000133751 -0.0293144 0.00256399 0 0 0 -0.0155074 -0.117762 0.0444706 -0.000124856 -9.66343e-05 -0.00170642 -18.5391 -24.9762 -10.0313 0.0025 
30 1 0.00467561 -0.0307897 0.00261133 0 0 0 -0.0301385 0.0374188 -0.0363494 0.0270711 0.0137422 -0.048814 0.262124 17.2028 23.0791 0.0025 
220 1 0.00984364 -0.0319635 0.00249386 0 0 0 0.0230591 0.024044 0.0763344 -0.0437936 0.0124901 -0.00108445 7.26092 10.0009 -0.434716 0.0025 
440 1 0.0184805 -0.0294704 0.00271133 0 0 0 0.00332744 -0.0674786 -0.0511679 -0.00213652 -0.00264563 -0.00521553 -3.71136 -15.5555 11.4086 0.0025 
13 1 0.0237148 -0.0288836 0.00248647 0 0 0 -0.128141 0.00127991 -0.0740774 0.0005463 0.000155798 0.00975648 -25.9752 37.8875 -1.5375 0.0025 
66 1 0.0288632 -0.0306105 0.00250314 0 0 0 -0.0568899 0.1814 0.141434 0 0 -0.00160516 39.2735 -11.0389 -10.077 0.0025 
205 1 0.0376321 -0.0290064 0.00274495 0 0 0 0.0920489 -0.0229689 -0.046066 -0.00928725 0.00711921 -0.00102416 -13.1736 9.6624 -14.6831 0.0025 
296 1 -0.0398935 -0.0255531 0.00247817 0 0 0 -0.0507288 0.0514087 0.0144323 0.000859095 -0.000614113 0.0195152 -11.3714 -7.3948 -22.0881 0.0025 
365 1 -0.0336388 -0.0249815 0.00279551 0 0 0 -0.0488096 0.0253425 -0.00843734 0 0 -0.00160516 11.8312 4.07126 27.8525 0.0025 
195 1 -0.0278485 -0.0256005 0.00277086 0 0 0 -0.0289082 -0.035288 0.0643968 0.00613074 0.00735592 -0.000762105 0.467343 -4.82443 -5.22216 0.0025 
394 1 -0.022713 -0.0273956 0.0026723 0 0 0 -0.0481851 -0.00311103 0.00614614 0 0 -0.00160516 5.0218 -12.0422 20.4095 0.0025 
434 1 -0.0177867 -0.0283519 0.00247774 0 0 0 0.0387837 0.11837 0.143797 -0.000224688 -0.000966488 0.0182401 -16.2723 8.31095 37.1172 0.0025 
286 1 -0.0093087 -0.0259105 0.00251224 0 0 0 -0.00750397 -0.0589551 0.128802 0.074337 -0.00242366 -0.0124143 5.44998 -22.9254 5.67814 0.0025 
346 1 0.0137864 -0.0277501 0.00249834 0 0 0 -0.0319313 -0.0843477 -0.0735489 0.0409987 -0.0340336 0.00254995 14.136 22.4363 3.67477 0.0025 
304 1 0.0282928 -0.0252505 0.0024967 0 0 0 -0.0200592 0.0791221 0.113088 -0.00506796 -0.0214672 -0.0041543 -21.5248 -24.054 -19.8206 0.0025 
285 1 0.0329758 -0.027203 0.00250568 0 0 0 0.0275446 -0.0743012 -0.0540982 3.78357e-05 -1.25166e-05 -0.00160321 -7.70784 -3.19084 -4.84509 0.0025 
15 1 -0.0237787 -0.0219563 0.00247667 0 0 0 0.000626455 -0.089731 0.0958422 0.00033506 0.00105468 0.0205272 -29.1101 20.9573 -11.215 0.0025 
421 1 -0.0188888 -0.0234291 0.00252996 0 0 0 -0.0110775 -0.0228596 0.116038 -0.00528972 0.00147886 -0.00229936 13.3138 10.962 12.8502 0.0025 
374 1 -0.0140695 -0.0246523 0.00293788 0 0 0 0.0323127 0.0741851 -0.133416 -0.066273 0.00470269 0.00805826 8.7818 3.27404 -13.372 0.0025 
334 1 -0.00554028 -0.0220375 0.00247855 0 0 0 -0.0179309 0.0682768 0.0870756 -0.0241178 0.0259351 -0.00141025 -17.9066 -0.329757 5.46601 0.0025 
87 1 0.00088294 -0.022695 0.00254796 0 0 0 -0.0530304 0.046821 -0.0462752 0.0052319 0.00432249 -0.00739444 4.01674 3.16351 -2.70468 0.0025 
32 1 0.00999776 -0.0245666 0.00245232 0 0 0 -0.150611 -0.0951376 0.126796 -0.0333275 0.0538234 0.0447191 -9.53811 -3.93757 37.7848 0.0025 
424 1 0.0183007 -0.0238378 0.0024918 0 0 0 -0.00951976 0.0167319 0.0955632 -4.13017e-05 -0.000186297 0.00221126 -3.84416 -4.5986 -0.106929 0.0025 
307 1 0.0232891 -0.0234531 0.00265877 0 0 0 -0.0431474 -0.0825144 -0.059195 0 0 -0.00160516 15.7008 -10.5499 15.016 0.0025 
44 1 0.0407792 -0.0239918 0.00266944 0 0 0 0.0494842 0.0527161 -0.100999 0 0 -0.00160516 0.61922 -5.26186 5.46724 0.0025 
58 1 -0.0426359 -0.0208452 0.00248623 0 0 0 -0.0388192 -0.00380051 -0.106042 0.000559441 0.000224923 0.0104541 -8.64685 9.73028 12.8379 0.0025 
404 1 -0.0374219 -0.0210741 0.00252527 0 0 0 -0.0417589 0.0302472 0.0509749 0.00110885 -0.00215646 -0.00249394 0.14388 17.1236 -27.166 0.0025 
187 1 -0.0287357 -0.0205835 0.00248653 0 0 0 0.107956 -0.116803 0.0742158 -0.000308896 0.000352511 0.00776886 0.981498 3.10809 2.4842 0.0025 
380 1 -0.0198523 -0.0184283 0.00250878 0 0 0 -0.0200309 0.0951933 -0.0501547 -0.0314183 0.000131071 -0.00657627 7.87144 11.1096 5.10728 0.0025 
293 1 -0.0149384 -0.0186679 0.00316896 0 0 0 0.0110423 0.0200347 -0.021889 0.0392295 -0.0454198 0.00587701 3.46422 -35.6783 -2.43375 0.0025 
433 1 -0.0106045 -0.0210876 0.00261845 0 0 0 -0.0844548 0.0427118 -0.105559 0.0213325 0.010436 -0.0182788 11.187 -15.9628 -2.99878 0.0025 
273 1 0.00893492 -0.0184329 0.00253012 0 0 0 0.0750137 0.0821418 -0.147328 -0.0804737 -0.0620109 0.000227254 -8.49032 6.42692 -4.91664 0.0025 
75 1 0.013993 -0.0212865 0.00248588 0 0 0 -0.0437017 0.0994926 0.135421 0.000289349 -0.000365122 0.00771228 -17.3058 0.386457 -5.88994 0.0025 
366 1 0.0182836 -0.0183686 0.00256278 0 0 0 -0.137191 0.013396 -0.0271553 0 0 -0.00160516 0.0225001 -11.6262 -2.91967 0.0025 
159 1 0.0246438 -0.0185516 0.00327948 0 0 0 -0.0062879 -0.0993387 -0.201632 0 0 -0.00160516 -19.87 9.3358 10.2783 0.0025 
149 1 0.029665 -0.0205102 0.00310456 0 0 0 0.0409338 0.00804721 0.0453046 0.00505871 0.0214611 0.00116492 -14.313 -24.0875 48.7764 0.0025 
448 1 0.0378937 -0.0198504 0.00249079 0 0 0 -0.044838 0.0396769 0.130572 0.0203018 0.0353024 -0.0247829 -13.4912 -17.9451 0.987578 0.0025 
339 1 0.0430842 -0.0193751 0.00272277 0 0 0 0.0590046 -0.043709 -0.0290707 0.00183057 -0.00220408 -0.0018697 -10.5528 -17.5133 5.66607 0.0025 
231 1 -0.0444302 -0.0158422 0.00265672 0 0 0 -0.0146387 0.0241731 0.106648 -0.0033721 0.0116214 -0.0208486 -5.88415 -1.95552 21.4116 0.0025 
9 1 -0.0349782 -0.0164484 0.00249662 0 0 0 0.0561315 -8.8875e-05 -0.0476509 -8.6519e-05 -6.37016e-06 0.000129907 1.62004 0.946953 8.78058 0.0025 
445 1 -0.0300442 -0.0156213 0.00299588 0 0 0 0.127184 -0.10988 -0.123265 0 0 -0.00160516 8.59382 -7.15476 -2.07788 0.0025 
6 1 -0.0251337 -0.0170882 0.00258044 0 0 0 -0.0260685 0.0939611 -0.170731 0 0 -0.00160516 4.9706 -8.68559 2.43453 0.0025 
40 1 -0.00618014 -0.0169084 0.00277643 0 0 0 0.00939789 0.0420211 -0.0690914 0 0 -0.00160516 1.96078 -6.60604 0.891965 0.0025 
52 1 -0.000819347 -0.0178272 0.00248193 0 0 0 0.0358403 0.0399506 -0.051473 0.0115915 0.0105788 -0.00426457 -11.2442 2.77944 5.51606 0.0025 
405 1 0.00403163 -0.0163288 0.00272801 0 0 0 0.033181 0.0196762 -0.0521928 0 0 -0.00160516 15.6324 -25.8257 -31.8963 0.0025 
379 1 0.0132556 -0.0160687 0.00260844 0 0 0 0.208257 -0.111748 -0.0578064 0.0808331 0.0485483 -0.00290415 -3.23785 12.6167 -11.266 0.0025 
20 1 0.0285097 -0.0149481 0.00252162 0 0 0 -0.0835661 0.0733755 0.059789 -0.00243282 -0.00800401 -0.00290118 -22.9041 -10.805 -3.33451 0.0025 
183 1 0.0333011 -0.0168905 0.00249887 0 0 0 0.0450817 0.0423046 -0.0326926 -0.00467616 -0.00148793 -0.00692772 -10.4287 1.66991 12.1724 0.0025 
386 1 0.0400795 -0.0154046 0.00307517 0 0 0 0.096431 0.109453 -0.0771127 0.000320974 0.00673566 -0.000502704 -2.14561 24.6185 -19.6481 0.0025 
104 1 0.0450771 -0.0148163 0.0032397 0 0 0 0.0525866 0.0208978 -0.101123 0 0 -0.00160516 -4.3921 15.0873 8.94486 0.0025 
196 1 -0.0455424 -0.0108466 0.00252524 0 0 0 -0.0694401 0.0645958 0.0413309 0 0 -0.00160516 -1.95623 -2.94339 -22.3314 0.0025 
74 1 -0.0386086 -0.0122444 0.00253369 0 0 0 -0.0947999 0.0361229 -0.0159173 0 0 -0.00160516 -13.721 1.69302 -14.5109 0.0025 
449 1 -0.0335864 -0.0116329 0.00254245 0 0 0 -0.131139 0.0456178 0.133428 0 0 -0.00160516 -7.31962 -15.0532 -17.1686 0.0025 
36 1 -0.0283421 -0.0108743 0.00291107 0 0 0 0.0535977 0.0136345 0.128384 0.00410429 -0.00487046 -0.00194084 29.7883 -17.4528 11.8684 0.0025 
331 1 -0.0234504 -0.0123714 0.00248127 0 0 0 -0.011242 -0.0274233 -0.0394108 0.00996804 0.00336569 0.00188864 9.33198 16.2068 0.171635 0.0025 
326 1 -0.0161373 -0.0138822 0.00273001 0 0 0 -0.00742675 -0.000617125 -0.130957 -0.0101664 0.0465831 -0.00395221 -3.82116 20.0548 -19.8292 0.0025 
158 1 -0.0102617 -0.0135937 0.00255557 0 0 0 -0.0188217 -0.0547455 -0.075465 0 0 -0.00160516 -18.9402 13.1469 -2.12428 0.0025 
226 1 -0.00488731 -0.0116471 0.00276629 0 0 0 0.0988074 -0.10963 -0.00249116 0 0 -0.00160516 14.6773 3.39065 -13.997 0.0025 
22 1 0.000513031 -0.0123987 0.00262804 0 0 0 0.147604 -0.0539636 -0.0978924 0.0128467 -0.0320172 -0.0343982 1.05771 33.5602 -7.08667 0.0025 
7 1 0.00861478 -0.0134632 0.00249661 0 0 0 0.00973984 0.0366289 -0.111963 0.00206946 -0.00735419 -0.0547806 2.25757 8.11673 10.3795 0.0025 
142 1 0.0186334 -0.0132371 0.0027006 0 0 0 -0.0352521 0.131183 0.0606922 -0.00305482 1.85276e-05 -0.00157037 -19.5334 -8.64674 20.6109 0.0025 
2 1 0.0236158 -0.013514 0.00260825 0 0 0 0.100736 0.0418319 0.106744 0.00305482 -1.85276e-05 -0.00163995 -12.4605 -12.0795 -32.1435 0.0025 
313 1 0.0358596 -0.0124447 0.00263385 0 0 0 0.0512223 0.0978308 -0.051302 -0.0251441 -0.00553458 -0.0348952 8.25106 -25.1041 -27.4939 0.0025 
426 1 0.0420293 -0.0108183 0.0025175 0 0 0 -0.170847 -0.0216868 0.0147416 0 0 -0.00160516 2.39183 17.9813 16.388 0.0025 
949 1 -0.036656 -0.00734926 0.00257643 0 0 0 -0.0213064 0.0567487 -0.168892 0 0 -0.00160516 18.1775 9.3923 3.11297 0.0025 
49 1 -0.0239286 -0.007153 0.00268362 0 0 0 -0.0178641 -0.000352526 0.0423958 0 0 -0.00160516 -26.5818 3.40506 -17.7074 0.0025 
252 1 -0.0192335 -0.00960023 0.0025333 0 0 0 -0.0201646 0.020123 -0.0515341 0 0 -0.00160516 20.3149 19.2903 19.2525 0.0025 
117 1 -0.0137008 -0.00951321 0.00268652 0 0 0 0.0500872 -0.0591857 0.0566991 0 0 -0.00160516 1.70259 27.1455 -1.77923 0.0025 
190 1 -0.00868115 -0.00838392 0.00251579 0 0 0 -0.0178704 0.0311833 0.144817 0 0 -0.00160516 11.7635 22.9794 1.04375 0.0025 
240 1 0.00504515 -0.00978736 0.00260322 0 0 0 -0.0711947 -0.0261022 -0.0709946 0 0 -0.00160516 -7.95095 10.198 7.99404 0.0025 
24 1 0.00979375 -0.00817168 0.00247162 0 0 0 -0.0421873 -0.0301885 -0.058009 0.00130127 -0.000974263 0.0309063 26.586 2.32991 15.4926 0.0025 
233 1 0.0162008 -0.00882561 0.00249715 0 0 0 0.0866615 0.0280584 -0.154239 -0.0151205 -0.0398006 0.00182857 10.8843 0.957726 21.2557 0.0025 
338 1 0.0215317 -0.00888359 0.00274237 0 0 0 0.092595 -0.0712221 -0.0361519 0 0 -0.00160516 1.2948 2.04455 -2.06128 0.0025 
337 1 0.0300256 -0.0102282 0.00305022 0 0 0 -0.0728411 0.0493444 -0.116625 0.00243282 0.00800401 -0.000309135 12.3103 22.7972 15.4432 0.0025 
237 1 0.0379815 -0.00784274 0.00269793 0 0 0 -0.0273934 -0.0545557 -0.0102667 0.024442 -0.00695713 -0.00144127 6.22477 18.3732 4.09887 0.0025 
362 1 0.0465817 -0.00832372 0.00250186 0 0 0 0.00176324 0.0193442 -0.0170799 0 0 -0.00160516 17.7519 -7.10483 -17.8219 0.0025 
292 1 -0.047058 -0.00590124 0.00248052 0 0 0 -0.100649 0.0716835 0.0210403 0.000774894 -0.0004249 0.0160697 -4.62416 3.6467 6.17659 0.0025 
238 1 -0.0417444 -0.00709888 0.00245342 0 0 0 -0.0981874 -0.0385998 0.0188468 0.00226738 0.0160562 0.0446212 -0.43768 3.70478 -24.0532 0.0025 
367 1 -0.0315509 -0.00705591 0.00292461 0 0 0 0.0481063 0.00486853 0.0284602 -0.00410429 0.00487046 -0.00126948 20.205 8.24518 -6.06206 0.0025 
342 1 -0.0274706 -0.00359789 0.00256844 0 0 0 0.0615574 -0.0659962 0.0590942 -0.0184313 -0.00208556 -0.0248442 3.98632 0.207044 -16.29 0.0025 
328 1 -0.016801 -0.00516012 0.00248553 0 0 0 -0.00118858 -0.0301954 0.0209749 0.000550888 0.0001074 0.00962003 8.38572 18.646 -5.3981 0.0025 
278 1 -0.01181 -0.00386718 0.002526 0 0 0 0.0205801 0.0536259 0.0716698 0 0 -0.00160516 3.47029 -2.20167 16.0543 0.0025 
61 1 -0.00400881 -0.00639863 0.00273765 0 0 0 0.150336 0.117198 -0.120654 0 0 -0.00160516 7.56984 18.4449 -18.4567 0.0025 
347 1 0.00105961 -0.00615645 0.00252122 0 0 0 0.179424 0.00951655 -0.0279175 0.0178542 0.0245455 -0.0335344 -9.98193 11.6937 17.3922 0.0025 
202 1 0.00652053 -0.00421413 0.00248429 0 0 0 0.0117571 -0.0400269 -0.0398915 0.00011494 0.000668077 0.0119527 -0.18438 7.51159 1.10545 0.0025 
154 1 0.012246 -0.00380525 0.00246941 0 0 0 0.0874841 0.0633442 0.0253919 -0.000401079 -0.00170188 0.0333648 3.86289 28.2893 -5.54948 0.0025 
80 1 0.0177513 -0.00411711 0.00249471 0 0 0 -0.0673181 -0.0297683 -0.0328365 0.00406084 -0.0320699 -0.00222229 3.73831 5.83018 -33.9002 0.0025 
971 1 0.0232506 -0.00399319 0.00253146 0 0 0 -0.0318204 -0.115233 0.140916 0 0 -0.00160516 38.4701 -1.57173 0.0796821 0.0025 
1046 1 0.028584 -0.00430399 0.00249687 0 0 0 0.021898 0.119736 0.017537 0.00297427 0.00338336 -0.0044604 2.29975 -18.5797 14.4959 0.0025 
92 1 0.033268 -0.00627676 0.00254338 0 0 0 -0.012316 -0.0489208 -0.0493791 -0.024442 0.00695713 -0.00176904 -11.7923 -15.0308 22.1817 0.0025 
305 1 0.0457566 -0.00337439 0.0024765 0 0 0 -0.073882 0.081435 0.0787493 0.00100939 -0.000513098 0.0210412 -16.6253 1.99209 -24.6705 0.0025 
945 1 -0.0434203 -0.00238565 0.00246032 0 0 0 -0.0196859 -0.012087 0.0584706 -0.00255942 -0.000146064 0.0496665 5.03229 -10.6541 -7.90738 0.0025 
1341 1 -0.0385159 -0.000391296 0.00250999 0 0 0 0.0469127 -0.163117 0.0858668 0.00208097 -0.0148552 -0.0280819 36.4465 16.0291 -10.8247 0.0025 
98 1 -0.0338203 -0.00255911 0.00288905 0 0 0 0.0335421 0.0602095 0.153211 0 0 -0.00160516 9.67208 31.2892 2.76251 0.0025 
1337 1 -0.0211553 -0.00267208 0.00271093 0 0 0 0.060663 0.0588192 -0.110926 0.00347853 0.00061566 -0.00571352 -3.5917 11.1273 -10.0568 0.0025 
1127 1 -0.0158352 -0.000179145 0.00262745 0 0 0 0.115826 -0.0504192 -0.0517812 -0.0364062 0.00420933 -0.0390379 3.10838 -22.39 1.79081 0.0025 
250 1 -0.00328978 -0.00110257 0.00263635 0 0 0 0.00714936 0.0364198 0.115225 0 0 -0.00160516 -11.9224 0.305546 0.373866 0.0025 
21 1 0.00204356 -0.00111136 0.00275324 0 0 0 0.166235 0.0152192 0.138596 0 0 -0.00160516 8.55419 8.00109 -14.4092 0.0025 
368 1 0.0352922 -0.00169959 0.00296182 0 0 0 0.059494 0.0959609 -0.11339 0.0203805 -0.0265823 0.00441859 8.93553 -8.48464 9.97745 0.0025 
425 1 0.0402174 -0.00269034 0.00287311 0 0 0 -0.0769684 -0.00611528 0.0648223 0 0 -0.00160516 5.89554 18.7213 -14.7266 0.0025 
73 1 -0.00517397 -0.0470564 0.00663208 0 0 0 -0.0700185 0.0421554 -0.0904883 0 0 -0.00160516 -28.3669 -18.5414 -14.0148 0.0025 
150 1 0.00313766 -0.0472292 0.00373978 0 0 0 -0.0401234 -0.0375753 -0.119921 -0.0189862 -0.0496515 0.00121529 -4.65147 -15.7894 -6.74752 0.0025 
352 1 -0.0125453 -0.045847 0.00606673 0 0 0 -0.0110845 -0.0578258 0.117301 0.0112435 0.0379744 -0.00340615 5.17364 -5.31665 -20.5097 0.0025 
241 1 0.0091546 -0.0465294 0.00468805 0 0 0 -0.0450627 -0.144276 -0.0335909 -0.000957756 1.62998e-05 -0.00492967 30.3518 20.7363 -17.6237 0.0025 
411 1 -0.0191911 -0.0413895 0.00695962 0 0 0 0.122999 -0.0186998 -0.000788659 0 0 -0.00160516 -14.1043 9.93157 4.79386 0.0025 
8 1 -0.0140119 -0.0406022 0.00677377 0 0 0 0.151961 0.0145944 0.0277486 -0.00368774 -0.00214154 -0.00323418 -3.62248 6.38488 -39.3734 0.0025 
444 1 -0.00779358 -0.0425977 0.00680376 0 0 0 -0.0796896 -0.0934639 0.117504 -0.0203509 0.000147819 0.0212613 -1.27219 -21.3441 45.3442 0.0025 
354 1 -0.00285787 -0.0421755 0.0073579 0 0 0 -0.0542627 0.0526969 0.0867559 0.00849188 0.000878023 -0.000243377 10.3408 -16.5407 32.7367 0.0025 
388 1 0.0139676 -0.0399051 0.00650729 0 0 0 0.00724827 -0.0208602 0.0747773 -0.0345744 0.0710193 0.0201035 -7.04079 -8.74189 -7.18567 0.0025 
16 1 -0.0183856 -0.0360653 0.00631301 0 0 0 0.0420216 0.00865288 0.0137673 -0.00356348 -0.0068269 -0.0219127 -4.51446 -4.39627 1.20745 0.0025 
70 1 0.000127626 -0.036831 0.00678326 0 0 0 -0.0750805 0.0155064 0.065123 -0.00182225 -0.00291654 0.00452414 -30.5382 -19.2987 -22.1714 0.0025 
589 1 0.0169969 -0.0359852 0.00672583 0 0 0 -0.0693012 0.118965 -0.0364619 0.0689897 0.0425105 -0.0577082 43.2043 -6.75005 4.4578 0.0025 
332 1 0.0220855 -0.0370399 0.0060509 0 0 0 -0.0742344 -0.0109138 -0.152428 0.0106791 -0.0112168 0.0138686 14.5165 41.7736 8.33093 0.0025 
314 1 -0.0289865 -0.032035 0.00633067 0 0 0 -0.00502653 0.137165 -0.013572 -0.0427259 -0.0118745 0.0528122 -12.0609 3.07901 -10.6095 0.0025 
348 1 -0.0246671 -0.0351713 0.00589022 0 0 0 -0.0911556 0.141598 -0.0438028 -0.000516938 0.0080861 0.00387977 -24.4875 -4.46233 -1.78555 0.0025 
160 1 0.00241914 -0.0322113 0.00677861 0 0 0 0.0513423 -0.064023 -0.0250111 -0.0270711 -0.0137422 0.0456036 0.644937 -7.85011 18.5066 0.0025 
170 1 0.00710864 -0.0344655 0.00605264 0 0 0 -0.0586843 0.0399587 -0.0742275 0 0 -0.00160516 -12.5714 22.8382 18.6576 0.0025 
357 1 0.0122955 -0.0343136 0.00693443 0 0 0 -0.0610313 0.0868381 0.0622874 -0.0367909 -0.0354409 3.346e-05 -7.57828 -3.30866 -11.2327 0.0025 
194 1 0.0270701 -0.0327567 0.00716698 0 0 0 -0.0804663 0.00958016 0.0187627 0 0 -0.00160516 -17.0182 -30.2111 -48.6964 0.0025 
11 1 -0.034503 -0.0295573 0.00696158 0 0 0 -0.0279841 -0.0993993 0.0366988 -0.0180442 0.0528494 -0.0164111 -25.9033 8.95961 10.9056 0.0025 
152 1 -0.0167438 -0.0308666 0.00678271 0 0 0 0.0081832 -0.0409875 -0.0278706 -0.0126064 0.0153209 -0.00403918 1.42799 8.16661 -14.5845 0.0025 
320 1 0.0158916 -0.0309156 0.00674617 0 0 0 0.0793971 -0.0368511 -0.0443961 0.0347058 0.0362245 -0.00325461 -17.7046 24.8731 30.9727 0.0025 
262 1 0.0219957 -0.0316197 0.00657281 0 0 0 -0.0504842 0.0526783 0.00778966 0 0 -0.00160516 -24.6579 9.22133 60.7427 0.0025 
215 1 0.0311735 -0.0288748 0.00713228 0 0 0 -0.0862634 0.043633 0.105879 0.0637451 -0.0165755 -0.00240024 -10.6926 1.01365 -10.6236 0.0025 
223 1 0.0361248 -0.0306632 0.0072374 0 0 0 0.033237 0.120392 0.0417773 0 0 -0.00160516 11.4399 2.42727 -24.8095 0.0025 
359 1 -0.0254631 -0.0280766 0.00682555 0 0 0 -0.08351 0.0441522 -0.161594 -0.00307938 -0.000430518 -0.00537852 45.6862 11.9689 23.5818 0.0025 
164 1 -0.00268937 -0.0254598 0.00465644 0 0 0 -0.141596 0.0261774 -0.0358187 0.0188906 -0.0313419 0.0213466 -15.0362 -1.05568 0.688598 0.0025 
76 1 0.00318284 -0.0265583 0.00509069 0 0 0 -0.0325032 0.0557779 -0.0253226 0.00970824 -0.0207051 -0.0129321 -42.282 -17.9826 2.11386 0.0025 
441 1 0.0092104 -0.0281105 0.00584778 0 0 0 -0.0782778 0.0254769 0.0237338 -0.00517148 -0.0175185 0.0154967 -10.8768 -39.7228 -23.1712 0.0025 
323 1 0.0204053 -0.0267156 0.00639814 0 0 0 -0.00935304 0.00561642 0.0300512 0.00213652 0.00264563 0.00200521 0.790915 10.1919 -13.4071 0.0025 
508 1 0.0264329 -0.0274833 0.00699873 0 0 0 -0.000809726 -0.0426601 -0.000727848 -0.0229487 -0.0115342 -0.0388276 25.9858 -31.4557 43.9302 0.0025 
372 1 -0.0402149 -0.0221411 0.00686967 0 0 0 0.00225055 0.0598299 -0.0283998 0 0 -0.00160516 -0.796834 -13.8142 -18.1709 0.0025 
192 1 -0.0267698 -0.0231914 0.00707728 0 0 0 0.0304188 -0.0387047 -0.0508751 0 0 -0.00160516 38.0963 -25.8764 18.9635 0.0025 
163 1 -0.0218579 -0.0245052 0.00666507 0 0 0 -0.0259319 0.0418925 -0.00294816 0 0 -0.00160516 -6.76245 36.9653 -0.436737 0.0025 
145 1 -0.013016 -0.0217382 0.00692043 0 0 0 -0.0378372 -0.0657114 -0.0777069 -0.0099723 -0.00216713 0.0143572 3.07997 -23.1959 23.0314 0.0025 
383 1 0.00559608 -0.0221514 0.00434211 0 0 0 -0.0553582 0.0383829 -0.0285135 0 0 -0.00160516 10.8809 8.80554 9.11116 0.0025 
391 1 0.0263003 -0.0219255 0.00697937 0 0 0 -0.0339889 -0.0461224 -0.106126 -0.00980712 -0.00126087 -0.0158473 45.3973 -25.1874 -6.53671 0.0025 
435 1 0.030902 -0.0238793 0.00671539 0 0 0 0.220319 -0.043267 0.0775453 -0.00114829 -0.00357731 -0.00229655 7.80605 -31.003 -3.46382 0.0025 
132 1 0.0357128 -0.0236611 0.00477591 0 0 0 -0.0994752 0.0124586 0.0482214 -0.0370725 -0.0277413 0.00882586 16.3788 -2.46593 -1.50975 0.0025 
439 1 -0.0436201 -0.0181726 0.00697402 0 0 0 0.0305816 0.123988 -0.0311956 -0.00554844 -0.00840451 0.00150981 29.5528 16.3911 -7.03761 0.0025 
382 1 -0.0329265 -0.0204557 0.00528539 0 0 0 0.00867648 -0.120615 -0.145895 0.00964805 -0.0293116 -0.0428344 9.43444 -31.0147 -0.690541 0.0025 
120 1 -0.0227143 -0.0187526 0.0071479 0 0 0 -0.12203 0.00270597 0.00666229 0 0 -0.00160516 0.752593 -19.425 -29.1856 0.0025 
201 1 -0.0180137 -0.0205282 0.00675242 0 0 0 -0.0156964 -0.172038 -0.0285193 0 0 -0.00160516 -10.2527 20.4989 -4.0358 0.0025 
41 1 -0.00317124 -0.0197533 0.00641174 0 0 0 0.0110872 0.0281028 0.0436335 -0.012377 -0.0108714 0.0178187 -0.366906 6.73249 -3.75233 0.0025 
269 1 0.0209947 -0.0212229 0.00658837 0 0 0 -0.118989 -0.109545 0.00121811 0 0 -0.00160516 -28.2896 13.1768 -15.5065 0.0025 
282 1 0.0404382 -0.0202887 0.00702837 0 0 0 -0.0554078 -0.0880213 -0.0117999 0 0 -0.00160516 37.5737 -30.8894 -17.7597 0.0025 
121 1 -0.0397216 -0.0169113 0.00404897 0 0 0 0.0133897 0.0128252 -0.00662317 -0.00110885 0.00215646 -0.000716378 29.6662 -9.13215 -25.158 0.0025 
23 1 -0.0103817 -0.017409 0.00608878 0 0 0 -0.0256561 -0.116778 -0.0245918 0 0 -0.00160516 -4.16741 -12.424 -28.6371 0.0025 
321 1 -0.00203661 -0.0142232 0.00700734 0 0 0 -0.0234998 -0.0132084 -0.0822757 0 0 -0.00160516 16.3651 -1.60396 -22.3063 0.0025 
54 1 0.0174223 -0.015504 0.0070634 0 0 0 -0.00627543 0.124395 0.077839 0 0 -0.00160516 15.1807 11.7409 -7.33817 0.0025 
1 1 0.0363676 -0.0161618 0.00636266 0 0 0 -0.00506058 -0.0513959 0.00842624 0.00465397 0.00147914 0.00419481 36.67 -20.017 8.41375 0.0025 
436 1 -0.0260377 -0.0135695 0.00655954 0 0 0 0.0766357 -0.209071 -0.00252764 -0.00909711 -0.00328601 0.0123923 17.6812 17.9407 -30.8596 0.0025 
236 1 -0.020204 -0.0141753 0.00658388 0 0 0 0.0016347 -0.0599512 0.0300598 0 0 -0.00160516 -10.0695 32.4035 -13.4479 0.0025 
397 1 -0.0117922 -0.0116658 0.00693126 0 0 0 0.00630492 -0.113305 0.0259261 0 0 -0.00160516 16.6167 -2.36029 -17.4887 0.0025 
203 1 -0.00717932 -0.0136244 0.0068396 0 0 0 0.0126417 -0.105651 -0.10961 0 0 -0.00160516 -0.214142 -17.9452 14.2822 0.0025 
442 1 0.00292792 -0.0120451 0.00727788 0 0 0 0.0925074 0.050056 -0.0119459 0 0 -0.00160516 -23.8778 -2.8482 9.87754 0.0025 
384 1 0.0127462 -0.0116224 0.00488314 0 0 0 0.150111 0.0205576 0.0338387 0 0 -0.00160516 23.9539 8.63642 -8.06971 0.0025 
406 1 0.0265224 -0.0122722 0.00651172 0 0 0 0.00976267 -0.0554122 -0.147092 0.000105616 0.000144324 -0.002272 44.846 34.7842 24.7157 0.0025 
153 1 0.0317016 -0.0139752 0.00653288 0 0 0 0.000681288 0.0193426 -0.100339 0 0 -0.00160516 8.3496 -42.8655 18.7053 0.0025 
59 1 0.0389805 -0.0116735 0.00640761 0 0 0 -0.0717943 -0.0356688 -0.0480735 0.0251441 0.00553458 0.0316849 25.7971 -16.9062 -8.31163 0.0025 
336 1 -0.0413392 -0.0100207 0.00645258 0 0 0 0.0922362 -0.0475666 0.0209749 0.000812183 -0.0148519 0.0183019 17.4833 3.2081 -5.22832 0.0025 
270 1 -0.0316051 -0.0103081 0.00699511 0 0 0 0.0328675 -0.0298984 0.0187396 0 0 -0.00160516 8.85051 -3.91315 -5.39744 0.0025 
419 1 -0.0275851 -0.00738101 0.00641879 0 0 0 -0.00401875 0.0129115 0.0535723 -0.0149481 0.020761 -0.037771 -14.4809 -17.0538 1.54964 0.0025 
258 1 -0.0165194 -0.00983057 0.00715452 0 0 0 0.127981 0.0302274 0.122381 0 0 -0.00160516 -9.71496 -3.77008 14.457 0.0025 
65 1 -0.00104889 -0.00906122 0.00593794 0 0 0 0.0471657 -0.0382464 -0.174004 -0.0307009 0.00747177 0.0631171 1.92607 -46.2454 -29.7373 0.0025 
124 1 0.0345549 -0.00927189 0.00644133 0 0 0 -0.0345105 0.0525585 -0.0118832 0 0 -0.00160516 12.6921 18.261 11.937 0.0025 
42 1 -0.0392914 -0.0042597 0.00577457 0 0 0 0.149485 -0.00787139 0.0258623 0 0 -0.00160516 -35.5351 0.127857 10.0493 0.0025 
27 1 -0.034542 -0.00556214 0.00697742 0 0 0 -0.115325 -0.0562817 -0.0253264 0 0 -0.00160516 33.5183 11.0933 10.9692 0.0025 
157 1 -0.0206805 -0.00651834 0.00650144 0 0 0 -0.10996 -0.152384 -0.0751488 0 0 -0.00160516 0.382417 9.20227 -16.2675 0.0025 
17 1 -0.0115958 -0.00663447 0.00670058 0 0 0 0.189844 -0.134249 -0.102107 0 0 -0.00160516 8.80811 -1.82975 34.803 0.0025 
1021 1 -0.00118071 -0.00396196 0.00660196 0 0 0 -0.00403835 0.0277306 -0.0143524 -0.0418645 0.0328724 -0.0487717 13.8398 -13.6117 11.2116 0.0025 
38 1 0.00373436 -0.00446401 0.00688034 0 0 0 -0.0435855 0.0831837 -0.087284 0.0486638 -0.0475342 0.0056952 4.89279 -11.9011 -8.22565 0.0025 
287 1 0.00826348 -0.0067766 0.007164 0 0 0 -0.030181 0.0117764 -0.0684138 0.000576537 0.0151401 -0.0014185 -10.1206 -31.7329 -16.6767 0.0025 
191 1 0.0147744 -0.0060058 0.006377 0 0 0 0.140503 0.0014485 0.101156 0 0 -0.00160516 -7.64278 -21.5556 -14.8115 0.0025 
151 1 0.020062 -0.00654246 0.00709788 0 0 0 0.0414258 -0.043563 0.0491625 0 0 -0.00160516 -26.4706 19.4181 -7.76075 0.0025 
254 1 0.026055 -0.00734065 0.00553835 0 0 0 -0.0710424 -0.175013 -0.101958 -0.0029981 -0.00342716 0.00224731 3.00098 -11.3442 17.1876 0.0025 
290 1 0.0371098 -0.00480488 0.00657273 0 0 0 -0.0176805 0.0368352 -0.066159 0 0 -0.00160516 -10.1354 4.57202 -28.9804 0.0025 
122 1 0.0420496 -0.0069987 0.00577954 0 0 0 -0.037281 -0.0449399 0.143375 0 0 -0.00160516 -4.76943 -15.5551 -31.5319 0.0025 
1100 1 0.0471212 -0.00590171 0.00705461 0 0 0 -0.0721777 -0.0849319 -0.017047 0 0 -0.00160516 -11.3941 -8.85076 -4.55652 0.0025 
381 1 -0.0474004 -0.00324056 0.00671739 0 0 0 0.0445935 -0.0346395 0.0597133 0.00706677 0.000790758 -0.00178398 5.5188 -10.116 8.13132 0.0025 