ITEM: TIMESTEP
20000
ITEM: NUMBER OF ATOMS
1800
ITEM: BOX BOUNDS mm mm mm
-0.05 0.05
-0.05 0.05
0 0.15
ITEM: ATOMS id type x y z ix iy iz vx vy vz fx fy fz omegax omegay omegaz radius 
410 1 -0.00810685 -0.0465957 0.00262409 0 0 0 0.0506249 0.0156155 0.0864654 -0.0199723 0.00419969 -0.0246703 -3.57621 9.16697 -0.141933 0.0025 
255 1 -0.0012145 -0.0475089 0.00248326 0 0 0 0.0270625 0.0313963 -0.00458146 -0.00533576 -0.00171406 0.0023084 -3.51609 -0.75491 -0.477065 0.0025 
150 1 0.00435068 -0.0473272 0.00271535 0 0 0 -0.00696947 0.0304947 0.146285 0.00800659 0.00322776 -0.00359263 0.4888 -9.29531 7.53527 0.0025 
241 1 0.00978148 -0.0464817 0.00248158 0 0 0 -0.0155719 0.0345474 0.00391483 0.00155007 -0.00543471 -0.012621 -0.312457 -1.23629 2.58434 0.0025 
217 1 -0.0156619 -0.0447833 0.00248193 0 0 0 -0.0634959 0.0661266 -0.083943 -0.012669 0.00272286 0.00466723 -6.63142 -2.92677 0.00413836 0.0025 
218 1 -0.00414591 -0.0434833 0.00246376 0 0 0 -0.0501555 0.0184416 0.0329662 -0.0137692 -0.00361886 0.0420218 -2.49781 -3.31219 4.36628 0.0025 
28 1 0.00143899 -0.0432996 0.0025904 0 0 0 -0.00587494 -0.0126451 0.0216206 -0.0049524 0.0328737 -0.00142435 -6.6165 -8.65092 8.9917 0.0025 
279 1 0.0169044 -0.0443993 0.00250319 0 0 0 0.0381692 -0.0573533 -0.006229 -0.00241833 0.0054896 -0.00161721 -4.07593 2.80462 3.62195 0.0025 
413 1 -0.0264082 -0.0394801 0.00247927 0 0 0 0.0353171 -0.0220252 0.0123531 0.0114769 -0.00847829 -0.00207662 11.7955 12.6953 6.40652 0.0025 
37 1 -0.022047 -0.0421072 0.0025091 0 0 0 -0.0365232 0.0320068 -0.00447267 -0.0080834 0.015718 -0.00290438 -3.2955 -4.2068 -3.0776 0.0025 
103 1 -0.0175073 -0.0400949 0.00260157 0 0 0 0.0425558 -0.0481158 -0.0398973 0.0118476 0.00552771 0.000693172 -7.74422 -11.9174 -1.4331 0.0025 
18 1 -0.0107608 -0.042333 0.00250487 0 0 0 0.0124145 -0.00671586 0.0346664 0.012391 0.0428842 -0.0652751 16.793 0.286039 14.9278 0.0025 
141 1 0.00641205 -0.0427916 0.00249409 0 0 0 0.0194236 -0.0121243 0.0133191 0.00438097 -0.010595 0.00129841 1.80842 7.74826 -6.66359 0.0025 
230 1 0.012359 -0.042158 0.00248271 0 0 0 -0.0245644 -0.0565 0.0202969 0.0102814 -0.00435641 0.00167099 -6.8504 -4.43869 -6.72079 0.0025 
409 1 0.0214652 -0.0423534 0.00249585 0 0 0 0.0556164 0.0271811 0.00783256 -6.16378e-05 -3.24374e-05 7.08055e-05 1.59125 -2.62661 5.22402 0.0025 
389 1 0.0258317 -0.0398869 0.00248582 0 0 0 0.0156262 -0.0319694 0.0311205 -0.0108935 -0.0042088 0.0013553 -6.29117 0.99342 -5.57185 0.0025 
95 1 -0.0219087 -0.0371128 0.00253849 0 0 0 0.0208474 0.031 -0.0300688 -6.50386e-07 0.00101057 -0.00155758 12.1295 7.62726 -6.59547 0.0025 
438 1 -0.0131354 -0.0377152 0.00250426 0 0 0 0.00258515 -0.0722486 0.0264794 0.0185588 0.0234606 -0.0233109 -5.26209 -1.9232 -9.5724 0.0025 
167 1 -0.00679826 -0.0392083 0.00246451 0 0 0 0.0356882 0.031518 -0.0269752 -0.010497 -0.00508638 0.0259326 12.6537 -3.64413 -2.25097 0.0025 
85 1 -0.00150922 -0.0392619 0.0025127 0 0 0 -0.0796542 -0.0113378 -0.0176055 0.00862546 0.0137621 -0.000633252 -5.10579 -1.25081 2.32915 0.0025 
268 1 0.00558298 -0.037886 0.0024764 0 0 0 -0.0423702 -0.0118134 0.0301647 -0.000677705 0.0184463 0.0146354 7.26548 -13.4601 4.42508 0.0025 
126 1 0.0107903 -0.0369321 0.00252925 0 0 0 -0.0884415 0.0197333 -0.0826381 -0.01801 -0.0184559 -0.0160482 8.10518 11.4617 -12.7054 0.0025 
101 1 0.0178315 -0.0387441 0.00247016 0 0 0 0.0493251 -0.0115816 0.111778 -0.0185032 -0.0123337 0.0225713 1.3271 19.9303 6.64072 0.0025 
309 1 0.0299019 -0.0369011 0.00250955 0 0 0 -0.0292927 -0.0321546 -0.0511867 0 0 -0.00160516 -0.687358 -9.97002 13.4176 0.0025 
10 1 -0.0336084 -0.0335582 0.00248908 0 0 0 -0.00985711 0.0797998 -0.00305425 -0.00293147 -0.0282337 0.00616834 9.60126 -9.2146 -0.373238 0.0025 
244 1 -0.0288451 -0.0350821 0.00250554 0 0 0 0.00505543 -0.00681549 -0.0182395 0 0 -0.00160516 8.88628 6.11954 -12.8907 0.0025 
182 1 -0.0202021 -0.0323349 0.00246798 0 0 0 -0.00154351 0.0266902 0.0222071 -0.0315089 0.00235921 0.0352083 0.671502 3.63193 -6.64244 0.0025 
81 1 -0.0153192 -0.0332273 0.00249459 0 0 0 0.02634 -0.0393589 -0.0352869 0.0309388 -0.00774775 -0.00979675 10.2038 4.26862 9.54723 0.0025 
291 1 -0.00901189 -0.0347011 0.00253723 0 0 0 0.0412669 0.0202057 0.0643967 -0.0158978 0.00113531 -0.00237595 8.21419 -2.13816 -4.48107 0.0025 
295 1 -0.00403975 -0.0349425 0.00255641 0 0 0 -0.0410373 0.0366491 -0.0357021 0.0122801 -0.00676177 -0.0102869 0.25065 0.618973 -11.276 0.0025 
68 1 0.00137769 -0.0351307 0.00246764 0 0 0 -0.0170653 -0.0177421 0.032877 0.000734725 0.00281873 0.0343732 -3.41278 -4.89213 -9.55148 0.0025 
234 1 0.0151342 -0.0345012 0.00250596 0 0 0 0.0424614 -0.0899625 0.0234002 0.00713717 0.00353534 -0.0021503 -1.36132 0.325649 -2.60373 0.0025 
213 1 0.0201145 -0.0343174 0.00249241 0 0 0 -0.0710808 -0.0033267 0.0385576 0.0169959 0.0108399 0.00197072 -9.30788 -2.90749 6.9619 0.0025 
134 1 0.0251234 -0.034965 0.00248134 0 0 0 -0.0030646 0.0307565 -0.0385286 -0.0286634 -0.0189996 0.0144272 -3.28272 4.24249 4.86381 0.0025 
369 1 0.0336372 -0.0335081 0.00251006 0 0 0 0.0151169 -0.0217611 0.0102498 0.00867599 -0.00340747 -0.00208869 -16.1732 8.27924 -0.939038 0.0025 
306 1 -0.0369417 -0.0298548 0.00253358 0 0 0 -0.00651505 0.0175278 -0.0153703 -0.00502756 0.00566115 -0.00143757 -8.63909 -3.66383 1.46226 0.0025 
266 1 -0.0311423 -0.0292405 0.00248697 0 0 0 0.0927033 0.00384924 0.0228278 0.00918879 0.00759132 -0.00323279 -2.79988 11.8735 -9.87607 0.0025 
113 1 -0.0251798 -0.0312117 0.00249125 0 0 0 0.0419039 -0.016212 -0.0258645 -0.0177648 -0.00641136 -0.00710119 4.00621 5.00854 -6.52046 0.0025 
265 1 -0.0113105 -0.0300081 0.0025276 0 0 0 -0.0824365 0.0304705 -0.136927 -0.00206747 -0.00304862 -0.00966936 -5.43707 4.1469 4.42776 0.0025 
115 1 -0.00624441 -0.030442 0.00252135 0 0 0 -0.042311 0.00794529 -0.0508439 -0.00111228 -0.00267642 -0.00624422 8.42949 -9.29328 -1.61006 0.0025 
225 1 0.000129551 -0.0302834 0.00247403 0 0 0 0.00772017 0.0113867 0.0385358 0.00205592 -0.00940919 0.00931233 -7.03474 3.69594 -9.526 0.0025 
30 1 0.00537682 -0.0299999 0.00254493 0 0 0 0.00753261 0.0142207 -0.00323925 0.00384571 -0.00621217 -0.00183085 -2.74622 -1.31013 -2.74093 0.0025 
220 1 0.0111678 -0.0314792 0.0025391 0 0 0 -0.0307539 -0.0447062 0.0616639 0.00140694 -0.00191208 -0.013963 12.5638 10.4477 -9.29944 0.0025 
440 1 0.0188921 -0.0293333 0.00256611 0 0 0 0.0244045 0.00498777 0.0161278 0 0 -0.00160516 -5.04674 -4.22995 -3.94079 0.0025 
13 1 0.0240349 -0.030108 0.00261866 0 0 0 0.00872556 0.0107172 -0.0290555 -0.0222204 -0.0126507 0.00116931 7.26078 6.17177 -8.31497 0.0025 
66 1 0.0289514 -0.0318112 0.00255817 0 0 0 -0.0451282 -0.0783995 -0.143436 0.016784 0.026351 -0.00399932 -1.42679 -6.36182 -5.16164 0.0025 
296 1 -0.0398133 -0.0257713 0.00247856 0 0 0 0.0034949 -0.0383892 0.0375706 -0.00220158 0.00417656 0.0176841 0.757088 -0.0405243 -5.88464 0.0025 
365 1 -0.0343543 -0.025422 0.0024845 0 0 0 0.00755589 -0.00877063 -0.0593719 -0.00228815 0.00396759 0.0121299 -3.07519 11.4179 9.65667 0.0025 
195 1 -0.0271142 -0.0262278 0.00249059 0 0 0 0.0239145 0.023025 0.0316811 -0.000187605 -0.000212161 0.00405905 -0.492911 1.86046 1.32445 0.0025 
394 1 -0.0220321 -0.027364 0.00252479 0 0 0 0.000383257 0.0169132 -0.064332 0.0151785 0.0170385 -0.000835422 -9.27494 -7.59161 7.51412 0.0025 
434 1 -0.0168153 -0.0282695 0.00247619 0 0 0 0.0151532 -0.0614308 0.010795 -0.00103102 -0.000251174 0.0204433 19.6206 2.7974 -6.37899 0.0025 
374 1 -0.0130128 -0.0249415 0.00250875 0 0 0 -0.0275696 0.000776483 0.0364641 -0.0260582 0.00465186 -0.00281466 8.66727 6.47527 -0.0594274 0.0025 
286 1 -0.00811964 -0.0257997 0.00248786 0 0 0 0.0118264 -0.0104902 0.0458308 0.025651 -0.00458176 0.00786729 0.591214 -16.2291 -2.10705 0.0025 
164 1 -0.0027655 -0.0261773 0.00270616 0 0 0 0.014633 0.011383 0.0576888 0 0 -0.00160516 15.2934 17.8987 -2.62616 0.0025 
76 1 0.00256081 -0.0258918 0.00278913 0 0 0 -0.0623928 -0.039202 0.024303 0.00362212 -0.00750058 -0.00244089 -7.85008 5.48742 -6.65343 0.0025 
32 1 0.00949165 -0.0253868 0.0025048 0 0 0 -0.0494355 0.0323894 -0.0397252 -0.022875 -0.0180704 -0.00290094 24.5573 4.75856 -7.88033 0.0025 
346 1 0.0142266 -0.0274523 0.00245801 0 0 0 0.0270211 0.00362455 -0.00987602 -0.000887658 -0.00271158 0.0554582 12.0605 6.47459 16.0412 0.0025 
307 1 0.0231585 -0.025204 0.00247165 0 0 0 0.0382961 0.0353533 0.0361861 -0.00993988 0.0102344 0.028651 0.343532 4.62205 5.58458 0.0025 
304 1 0.0278413 -0.0269189 0.00248049 0 0 0 -0.0299641 -0.0317861 -0.0118175 0.0295334 0.0154693 0.0146991 3.09599 6.90846 1.22159 0.0025 
285 1 0.0334354 -0.028457 0.0024972 0 0 0 -0.0169251 -0.0339066 0.0271201 -0.0305287 0.000126375 -0.0044548 7.16389 -2.21573 4.77476 0.0025 
205 1 0.0383853 -0.0280407 0.0024796 0 0 0 0.0408804 -0.048332 0.0317689 -0.0346914 -0.00400987 -0.00379407 2.67844 6.30201 -1.37175 0.0025 
187 1 -0.0282531 -0.0213517 0.00248701 0 0 0 0.0820446 -0.0192519 0.0586639 0.0125146 -0.00085405 0.00110686 8.01555 7.7197 2.59719 0.0025 
15 1 -0.023384 -0.0225169 0.002522 0 0 0 -0.0527667 0.00329503 -0.0704396 0.00719155 -0.0221746 -0.00156009 -3.26101 2.75335 -4.00786 0.0025 
421 1 -0.0183889 -0.023356 0.0024912 0 0 0 0.0355167 -5.48092e-06 -0.0138348 -0.000207858 -0.000235433 0.00395928 8.76839 5.80718 7.49284 0.0025 
334 1 -0.00516043 -0.0217106 0.00248729 0 0 0 -0.0101984 0.0255202 -0.0342447 -0.00907381 0.000941447 0.00358047 10.0155 -1.06881 -9.94959 0.0025 
87 1 -0.000179087 -0.0217465 0.00250639 0 0 0 -0.0700854 0.0303427 -0.00106839 -0.00138466 0.01754 -0.0211876 11.1812 15.2594 -3.20359 0.0025 
75 1 0.0134799 -0.0224287 0.00252857 0 0 0 0.0307982 0.0491317 -0.00773584 0.0305432 0.0171125 -0.0110145 9.98256 -11.5933 3.98559 0.0025 
424 1 0.0181281 -0.0243208 0.00248403 0 0 0 0.00216771 0.0943242 -0.0823916 4.34539e-05 -0.000721288 0.0128467 -6.01797 2.78713 4.89172 0.0025 
132 1 0.0348256 -0.0235809 0.00248909 0 0 0 -0.00263661 -0.00868452 0.0665314 0.00142457 -0.00320481 0.000593596 0.649167 -2.15507 5.64775 0.0025 
44 1 0.0410075 -0.0238254 0.00248163 0 0 0 0.00751647 -0.0436411 0.0608217 -0.00428454 -0.0176797 0.0110092 -1.15871 -1.57866 12.5574 0.0025 
58 1 -0.0424244 -0.021341 0.00250233 0 0 0 -0.032135 0.0187313 -0.0170383 0 0 -0.00160516 5.06225 1.13898 -4.55857 0.0025 
404 1 -0.0373965 -0.0212731 0.00251355 0 0 0 0.0293021 -0.0564448 -0.00408117 -0.00922155 0.0100837 -0.0407783 19.0541 5.3065 9.67077 0.0025 
380 1 -0.0198557 -0.018401 0.00253071 0 0 0 0.0623668 -0.000439615 -0.022014 0.0126113 -0.000492907 -0.00100298 2.38951 -5.83364 -1.92352 0.0025 
293 1 -0.0149478 -0.0192556 0.00249243 0 0 0 -0.0268146 -0.00215206 -0.0728163 0.00985198 -0.0201231 -0.0217988 -2.43427 -12.3206 2.239 0.0025 
433 1 -0.0100864 -0.020796 0.00245073 0 0 0 -0.0619671 -0.00566278 0.00313884 0.00249285 -0.0107782 0.0569534 -0.0180419 -7.5519 -9.26247 0.0025 
383 1 0.0047761 -0.021033 0.00247876 0 0 0 0.00538292 -0.0366954 0.0321684 -0.021913 -0.00748716 0.0170139 6.24164 7.67936 3.98508 0.0025 
273 1 0.00944675 -0.0193354 0.00253789 0 0 0 0.0823738 -0.0204345 -0.0396361 0.0220524 0.00847736 -0.000224868 -6.11693 -0.436252 -0.134574 0.0025 
366 1 0.0185401 -0.0193235 0.0024796 0 0 0 0.0355665 -0.000409744 0.00485309 -0.000810144 -0.00051388 0.0175824 9.11356 0.176704 15.3743 0.0025 
159 1 0.0245744 -0.0196794 0.00267448 0 0 0 -0.0581495 0.0171928 0.0213116 0.0202271 -0.0249429 -0.0193361 -3.45367 -8.36015 5.47461 0.0025 
149 1 0.0298836 -0.0210615 0.00251344 0 0 0 0.053576 -0.025695 -0.040947 0 0 -0.00160516 12.7433 -3.7561 12.5579 0.0025 
448 1 0.0379503 -0.0196375 0.00249548 0 0 0 -0.0494002 -0.0648658 0.0442442 0.000578036 -0.0186896 -0.0150287 -0.932826 -2.6782 -0.209028 0.0025 
339 1 0.0431853 -0.0193788 0.00249612 0 0 0 0.00127306 0.0133195 0.12205 0.0221809 0.0469624 -0.0032871 23.3468 -13.3364 -5.40892 0.0025 
231 1 -0.0445199 -0.0166149 0.00249584 0 0 0 0.0324872 -0.0129105 0.0268692 0.0073395 -0.00205696 -0.016203 4.05054 -3.26092 -2.70867 0.0025 
121 1 -0.0395511 -0.0166314 0.00286213 0 0 0 -0.00405476 -0.0228613 -0.0226465 0.0112631 6.52708e-05 -0.000216052 7.26608 3.37603 2.92993 0.0025 
9 1 -0.0345186 -0.0167726 0.00249379 0 0 0 -0.00987203 -0.0384828 0.0408899 -0.0203955 -0.00331277 -0.0027345 -1.63801 -3.49072 -5.3352 0.0025 
445 1 -0.0295631 -0.016359 0.0024831 0 0 0 -0.017428 -0.112629 -0.0210365 0.00760052 0.00782444 0.0142291 1.63717 1.52817 -0.271618 0.0025 
6 1 -0.0247821 -0.0177471 0.00249936 0 0 0 0.061503 0.0181986 0.0211701 -0.0281443 0.00629981 -0.0038256 1.00304 6.6629 7.92695 0.0025 
40 1 -0.00649405 -0.0168688 0.00244407 0 0 0 0.107352 -0.00977619 -0.0652925 0.0476454 0.0173131 0.0198869 -8.93317 5.62488 3.75526 0.0025 
52 1 -0.00148922 -0.0168523 0.00247066 0 0 0 0.0083624 -0.0190095 -0.0476329 -0.00135238 0.00102784 0.0323676 0.847477 -5.58071 2.3853 0.0025 
405 1 0.0052746 -0.0160558 0.00253887 0 0 0 -0.0100244 -0.00239856 -0.03364 0.00255846 0.0138943 -0.0293205 11.6895 6.56766 10.0592 0.0025 
379 1 0.0139858 -0.0172206 0.00250895 0 0 0 -0.00689879 -0.0243424 -0.0141698 -0.0143797 -0.00451731 -0.0242228 11.7811 6.40414 -2.58595 0.0025 
2 1 0.0237573 -0.0147683 0.00250482 0 0 0 -0.00276691 -0.0207165 0.04892 -0.00716273 0.00986383 -0.0109085 12.1127 -0.339322 5.72739 0.0025 
20 1 0.0286044 -0.0160436 0.0024945 0 0 0 -0.0341307 0.0166767 0.0914274 -0.00835099 0.00232645 -0.000272662 -2.98547 -0.234126 6.69178 0.0025 
183 1 0.0334263 -0.0173064 0.00249511 0 0 0 0.00580146 0.0438749 0.0573974 0.0084615 -0.00242957 0.000494127 2.42724 8.71156 6.65595 0.0025 
386 1 0.0400896 -0.0151358 0.00247976 0 0 0 -0.0360856 -0.0570969 -0.030608 0.00400329 0.00926186 0.0182997 1.69277 -13.003 -2.59638 0.0025 
104 1 0.0451785 -0.0146823 0.00248019 0 0 0 -0.00485361 0.0103018 0.0192027 -0.0060992 -0.00926587 0.00513875 -4.83007 -7.4396 -2.49246 0.0025 
196 1 -0.0458121 -0.0117685 0.00252439 0 0 0 0.0291886 -0.0738156 -0.0143709 -0.000161882 0.000718115 -0.00299091 7.68008 5.75071 0.512501 0.0025 
74 1 -0.039371 -0.0114539 0.00247642 0 0 0 -0.0512032 0.0273865 -0.0286264 -0.00133742 0.00111309 0.0167494 -0.56287 -0.316378 10.7505 0.0025 
449 1 -0.0323163 -0.0121677 0.00250052 0 0 0 0.0709332 -0.0484379 -0.0297968 0.00877866 -0.0118747 -0.00164471 -3.00246 -1.76308 -10.5671 0.0025 
36 1 -0.0266118 -0.0122861 0.00247963 0 0 0 0.00798125 -0.0721059 -0.017736 0.0165887 -0.00546945 -0.00728814 13.7477 0.930317 -7.00815 0.0025 
331 1 -0.0217758 -0.0137816 0.00249743 0 0 0 0.0861427 0.00999865 0.00711759 0.0121216 0.0159033 -0.00780369 3.99919 7.10801 -4.6748 0.0025 
326 1 -0.0161253 -0.0139673 0.00251418 0 0 0 0.132844 0.0453427 0.00588698 -0.0203582 0.0258577 -0.042614 -2.25233 16.2949 -13.7424 0.0025 
158 1 -0.0110176 -0.0145859 0.00248838 0 0 0 -0.0165121 -0.0628304 -0.00191285 -0.00309326 0.00870137 -0.0036834 9.58795 -0.255929 -1.2364 0.0025 
226 1 -0.00363911 -0.0123186 0.00250199 0 0 0 -0.0532196 -0.00892231 0.0377136 0.019191 0.00329787 -0.0214054 0.436409 3.15632 -4.57594 0.0025 
22 1 0.00143482 -0.0127186 0.00268991 0 0 0 -0.0872939 -0.00453226 -0.055152 0 0 -0.00160516 -2.68825 7.10961 0.116861 0.0025 
7 1 0.00998181 -0.0140773 0.00248977 0 0 0 0.0522836 -0.00420993 0.0316581 -0.000322905 1.17702e-05 0.00485723 0.695782 -6.24969 0.912464 0.0025 
142 1 0.0188247 -0.013944 0.00249119 0 0 0 0.0194641 0.0653766 -0.0266288 -0.0404267 -0.0605326 0.00408778 12.2174 -2.68382 -5.30227 0.0025 
313 1 0.035724 -0.0126195 0.00249324 0 0 0 -0.0574828 0.0143815 0.0855836 -0.00498619 -0.00137012 -0.005187 -1.84572 -8.0844 4.40789 0.0025 
238 1 -0.0422176 -0.00730055 0.00258965 0 0 0 -0.0258909 -0.0405522 0.00488492 0.030129 -0.0176585 -0.00202548 -3.38673 -2.9428 -8.49258 0.0025 
949 1 -0.0354705 -0.00831657 0.00248582 0 0 0 -0.0280554 -0.0609748 -0.0082889 -0.00643407 0.0113397 0.0076617 16.1648 4.04815 15.0828 0.0025 
367 1 -0.0292271 -0.00786447 0.00247294 0 0 0 0.0633025 -0.0374579 -0.0355188 -0.00510394 -0.000868795 0.022538 5.96558 9.57507 -4.22114 0.0025 
49 1 -0.0241004 -0.00791306 0.00249267 0 0 0 0.0229658 -0.0403968 0.00823763 -6.79635e-05 0.000191057 0.00245054 0.0584405 3.46416 5.14918 0.0025 
252 1 -0.0190088 -0.0096135 0.00251937 0 0 0 0.0815214 -0.0225819 0.00181412 -0.00398579 -0.00787435 -0.00141168 2.4471 0.0621262 12.7592 0.0025 
117 1 -0.0135635 -0.00944527 0.00249209 0 0 0 -0.0153208 -0.0045855 0.0721468 -0.0049546 0.00747113 -0.0119332 1.88422 -1.14586 -16.4523 0.0025 
190 1 -0.00841092 -0.00940648 0.00249841 0 0 0 -0.0345673 0.0457885 -0.0789672 2.8817e-05 -4.19159e-05 -0.000587836 2.44323 0.44422 -10.3293 0.0025 
347 1 0.00219363 -0.00777513 0.00249758 0 0 0 -0.0399861 0.0245157 -0.0211139 0.00402766 -0.00653425 -0.00585035 2.58508 3.8573 -0.71631 0.0025 
240 1 0.00704866 -0.00900081 0.00255953 0 0 0 0.0380959 0.0512508 -0.111605 0.00536863 0.0095793 -0.0108993 -17.1856 -2.51905 2.77111 0.0025 
24 1 0.0120148 -0.00843627 0.00248146 0 0 0 0.0212071 0.0404236 0.0139807 0.00143824 -0.000836646 0.0113098 -16.0811 8.42579 1.56741 0.0025 
233 1 0.0170529 -0.00825027 0.00265029 0 0 0 -0.00245522 -0.0488113 -0.0619397 0.00326131 -0.0221837 -0.0295866 -5.66927 6.05893 3.3534 0.0025 
338 1 0.0217732 -0.00998249 0.00251654 0 0 0 0.0612843 -0.0570801 0.00146586 0.0208583 0.0537425 -0.00446654 3.20542 6.09364 -15.5015 0.0025 
337 1 0.0311153 -0.00972619 0.00249899 0 0 0 -0.0751947 -0.0194861 -0.0415406 0.0130577 -0.00465535 -0.0201548 -8.4806 1.9883 2.19459 0.0025 
237 1 0.038112 -0.00778579 0.00246735 0 0 0 0.0313308 -0.00763057 0.0376583 -0.0152268 -0.0122128 0.0342597 -4.33323 7.00711 -6.84071 0.0025 
426 1 0.0422516 -0.0105306 0.0024823 0 0 0 0.000691325 0.00707985 0.00703773 0.0236952 -0.0158896 0.0152497 -6.29639 -3.19634 -0.812708 0.0025 
362 1 0.0467622 -0.00832743 0.00248449 0 0 0 -0.00882118 -0.0364182 0.0364845 -0.000270854 -0.00379911 0.00749799 8.967 -2.80596 0.914646 0.0025 
292 1 -0.0470858 -0.00632631 0.00252021 0 0 0 -0.0529685 -0.0327881 -0.0518884 -0.026343 0.0406951 -0.0511909 -7.2772 -2.60176 11.0303 0.0025 
328 1 -0.0169669 -0.0050665 0.00250134 0 0 0 0.000843062 0.0439669 0.0336106 0.0039752 0.00786611 -0.00184523 -4.19056 -7.47671 -1.07409 0.0025 
61 1 -0.00341743 -0.00649252 0.00246953 0 0 0 -0.0586422 -0.0382965 0.0360263 -0.00557892 -0.00187874 0.025629 7.15534 -9.78813 4.48549 0.0025 
202 1 0.00721578 -0.00379499 0.00262656 0 0 0 0.0814368 -0.0401332 0.0493904 3.85646e-05 -0.00738973 -0.00125824 -22.6227 4.25436 -6.05005 0.0025 
1046 1 0.0289668 -0.00398969 0.00253753 0 0 0 -0.0441342 -0.0141775 0.0137564 -0.00752509 0.00517708 -0.00324631 1.60271 -22.1543 4.02176 0.0025 
92 1 0.0337384 -0.00543036 0.0025086 0 0 0 -0.0395731 0.0300206 -0.0612555 -0.0137881 0.00978738 -0.000832981 -7.40202 2.83136 -4.43885 0.0025 
425 1 0.0410722 -0.00378991 0.00251704 0 0 0 -0.0431597 -0.0628431 0.0499883 0.0136104 0.0165295 -0.00193676 -2.04958 -1.76881 -8.28446 0.0025 
1140 1 -0.0474274 -0.00127127 0.00250039 0 0 0 -0.0108685 -0.011385 0.00588678 0.00102671 -0.0192554 -0.0216928 3.76132 -2.62145 -0.688819 0.0025 
945 1 -0.0423766 -0.00232152 0.00253193 0 0 0 0.0433842 -0.021895 0.0599256 0.00415043 -0.020762 -0.00226983 5.75227 3.41973 -4.12268 0.0025 
1341 1 -0.0374379 -0.00321647 0.00254845 0 0 0 0.0518958 -0.0777483 -0.0250221 0 0 -0.00160516 27.6009 9.85055 -11.3757 0.0025 
98 1 -0.0323318 -0.00346037 0.00248889 0 0 0 0.00475088 -0.00403683 0.0501803 0.000458302 0.00296232 0.00194021 1.1504 5.52449 9.32387 0.0025 
342 1 -0.0266891 -0.00355335 0.00256176 0 0 0 0.0398169 -0.0294057 -0.0778448 0.000138398 0.0135509 -0.0180103 -2.55381 4.88132 3.80443 0.0025 
1337 1 -0.0216787 -0.00332361 0.00248887 0 0 0 0.014012 -0.12853 -0.0547763 -8.28251e-05 0.000413629 0.00683164 0.236175 -4.65287 0.131357 0.0025 
278 1 -0.0122683 -0.0033355 0.00250221 0 0 0 0.0138798 -0.0426652 -0.0301648 -0.00348605 0.00847006 -0.00974995 -9.54098 -7.66858 6.67258 0.0025 
248 1 -0.00728016 -0.00300898 0.00252485 0 0 0 0.00806327 0.000424809 -0.0145403 0.000462575 -0.000390887 -0.00162334 10.2168 0.390315 -9.63249 0.0025 
250 1 -0.00236722 -0.0011331 0.00250144 0 0 0 -0.0635042 0.0302989 -0.0261492 0.00409638 0.00229996 -0.00923108 -1.18785 -1.52616 2.46067 0.0025 
21 1 0.00274144 -0.00155996 0.00247885 0 0 0 -0.0264065 -0.0245161 0.090694 0.0131047 -0.0306195 -0.0356694 -4.87426 -5.88279 0.0650432 0.0025 
154 1 0.0121763 -0.00270753 0.00245965 0 0 0 0.0150818 -0.0207406 0.0639731 -0.0162997 0.012526 0.0250101 4.56573 7.00651 2.59438 0.0025 
80 1 0.0172436 -0.00323225 0.00248166 0 0 0 -0.0844372 0.0175316 -0.0328523 0.00547492 -0.0143271 -0.00377564 9.46166 -2.76825 -8.66848 0.0025 
971 1 0.0223002 -0.00174984 0.00253265 0 0 0 -0.0395487 0.0148183 -0.0513211 -0.00557298 0.00387033 -0.00731919 0.442626 3.3746 -7.34334 0.0025 
368 1 0.036699 -0.00136868 0.00249501 0 0 0 -0.00993117 0.0137647 0.00175343 0.00154952 -0.00169393 -0.00274868 -7.94633 8.38083 2.68048 0.0025 
305 1 0.0474186 -0.00338089 0.00259301 0 0 0 -0.00924424 0.0168036 0.0140638 -0.0501785 0.00652042 0.00110788 2.86233 12.9863 -3.34649 0.0025 
73 1 -0.00470269 -0.0472705 0.00617655 0 0 0 0.0418189 0.0400839 -0.156618 0.0123155 -0.00320488 0.0200153 -12.3329 -18.5401 -18.2534 0.0025 
411 1 -0.0193894 -0.0433676 0.00658682 0 0 0 -0.0514077 0.0412341 0.0649561 0.000875807 0.00179254 -0.00167816 0.0141279 1.97648 0.575574 0.0025 
352 1 -0.0120233 -0.0459029 0.00568495 0 0 0 -0.0609674 0.0117149 0.0251521 -0.00709383 -0.0473371 0.0386018 6.26394 -13.5937 8.99941 0.0025 
444 1 -0.0074573 -0.0428606 0.00618858 0 0 0 0.00972118 -0.074719 0.0721045 0.00208297 -1.13158e-05 -0.00800576 5.52633 10.0019 -4.61056 0.0025 
243 1 0.0148441 -0.0450616 0.00708185 0 0 0 0.0216815 -0.0623705 -0.0432534 -0.0129552 -0.0175618 -0.00847742 8.51811 -3.94895 -6.62202 0.0025 
302 1 0.0194994 -0.0433161 0.0069898 0 0 0 0.0595522 -0.0300272 0.0501578 0.0187234 0.00865964 -0.00304511 0.79175 -9.13726 15.0024 0.0025 
82 1 -0.0241669 -0.0408609 0.00694329 0 0 0 0.0465504 -0.0438644 0.0285952 0.00718935 -0.0074152 -0.024031 -19.8412 -9.9272 3.58313 0.0025 
8 1 -0.0139335 -0.0410353 0.00611124 0 0 0 -0.0386955 -0.00870718 -0.00763625 -0.0199919 -0.00198871 0.0106035 7.31511 -0.512223 19.0188 0.0025 
354 1 -0.00145271 -0.0425181 0.00660938 0 0 0 -0.0363488 -0.0990487 0.0209288 0.0226863 -0.0262921 -0.00345521 9.8351 1.89247 18.0229 0.0025 
377 1 0.00377759 -0.0424189 0.00692512 0 0 0 -0.0587907 0.0389078 0.014829 0 0 -0.00160516 11.7314 -4.53231 5.0598 0.0025 
60 1 0.00921675 -0.0403718 0.00590476 0 0 0 -0.0160529 0.0992648 -0.0926503 -0.0102243 0.0045019 0.00915059 2.50942 7.42804 13.0458 0.0025 
102 1 -0.0285419 -0.0379832 0.0067107 0 0 0 0.0493832 -0.0192844 0.0634413 -0.00633915 0.010954 0.013372 -9.48087 -2.34496 -0.991096 0.0025 
301 1 -0.00974636 -0.0382346 0.00656716 0 0 0 -0.0363439 0.0427745 0.030295 0 0 -0.00160516 15.0162 11.6419 0.635522 0.0025 
197 1 -0.00450147 -0.0386099 0.00683511 0 0 0 0.0555509 -0.00793302 0.0325988 -0.0135874 0.0295783 0.0174618 5.27397 0.421088 -8.86826 0.0025 
70 1 0.00036248 -0.0371107 0.00693807 0 0 0 -0.0569531 0.00230771 0.0672949 -0.00258896 -0.000644835 6.46753e-05 4.80827 9.17408 3.68362 0.0025 
388 1 0.0140762 -0.0388927 0.0058613 0 0 0 -0.00790172 -0.0270277 -0.0231452 0.0091804 -0.0156652 -0.00874976 -0.671145 -3.18048 6.04381 0.0025 
332 1 0.0219436 -0.0381658 0.00522088 0 0 0 0.0112247 -0.0279351 -0.0251841 0.0105365 0.00164513 0.00622665 13.0813 -11.4144 6.81968 0.0025 
186 1 0.0276122 -0.0386523 0.0069783 0 0 0 -0.0144315 -0.0393283 0.0107309 0.00485797 -0.00247902 -0.0026929 0.262286 8.01379 4.80224 0.0025 
348 1 -0.0246576 -0.0346989 0.00600533 0 0 0 0.0179499 -0.000940597 -0.00227993 0.00230506 -0.0105786 0.00882971 -11.7409 9.06404 4.02922 0.0025 
16 1 -0.0179227 -0.0361613 0.00566377 0 0 0 0.0978718 -0.113605 -0.0324892 0.00587109 0.00199701 -0.00710863 -6.52216 -2.47814 2.3321 0.0025 
378 1 -0.0121067 -0.0337714 0.00645458 0 0 0 -0.0479874 -0.0119144 0.0572506 0.0314881 -0.0261689 -0.00541542 -3.56883 2.62487 12.6793 0.0025 
667 1 -0.00225687 -0.0326187 0.0065872 0 0 0 0.0194915 -0.0795474 -0.114294 0.00361775 0.00562645 0.00784732 11.4111 2.16175 -9.40674 0.0025 
170 1 0.00748748 -0.0339411 0.00488958 0 0 0 0.00864628 0.00657867 -0.0221942 0.00226847 -0.0238524 -0.026228 -0.545488 0.488115 -2.75923 0.0025 
357 1 0.0121621 -0.0343554 0.00655642 0 0 0 -0.0124021 0.00475412 -0.0279332 0.00637552 0.0250764 0.0212226 -0.417298 6.88371 -4.15022 0.0025 
589 1 0.0178862 -0.0356478 0.00677093 0 0 0 0.0267168 0.0302468 -0.000408021 0 0 -0.00160516 6.84291 -9.14496 -12.3748 0.0025 
262 1 0.0219608 -0.0322397 0.00664626 0 0 0 -0.0590842 0.0238788 -0.0502409 0.00651808 0.000543216 -0.00870898 7.41524 4.54789 -3.82966 0.0025 
194 1 0.0267444 -0.0337389 0.00707027 0 0 0 0.00751474 -0.10707 -0.00483443 -0.00142026 0.00453531 -0.00216323 1.06541 -9.32002 -9.45242 0.0025 
11 1 -0.0337824 -0.0298649 0.0069367 0 0 0 -0.00431736 -0.00886084 -0.011187 0 0 -0.00160516 -1.99307 5.54232 0.197527 0.0025 
314 1 -0.0286105 -0.0316177 0.00611843 0 0 0 0.00768564 -0.0255401 0.000259529 -0.00148294 -0.00132052 -0.00170716 1.13808 -8.7044 -3.93361 0.0025 
152 1 -0.016033 -0.0307601 0.0067597 0 0 0 -0.0438275 -0.0190083 0.0130848 -0.00957718 0.0354865 0.0095368 -3.87718 -14.7178 -13.9791 0.0025 
160 1 0.002982 -0.0325198 0.00643667 0 0 0 -0.0556254 0.0185798 -0.00662631 -0.0197112 0.00730991 0.00567843 -9.11707 0.650656 2.46556 0.0025 
441 1 0.00885126 -0.0294194 0.00643563 0 0 0 -0.0847997 -0.0802427 -0.139394 0.00156172 0.0295645 0.0198088 5.93797 -6.92885 -16.7155 0.0025 
320 1 0.0159007 -0.0310563 0.00635102 0 0 0 0.00204371 -0.0330273 -0.0691745 0.00348551 0.00298156 -0.00157602 -4.86549 -0.825968 -11.7884 0.0025 
508 1 0.0264463 -0.0287485 0.0069725 0 0 0 0.0473895 0.0129506 0.0359113 0 0 -0.00160516 8.5387 5.97328 -1.2254 0.0025 
215 1 0.0312315 -0.0303944 0.00676044 0 0 0 -0.0288069 -0.0287479 -0.00262149 -0.0151329 0.00359759 0.00734781 -9.19681 -3.14857 3.58893 0.0025 
223 1 0.0361188 -0.0308549 0.00595066 0 0 0 -0.069484 0.0173089 0.0232099 0.0213661 -0.00459596 -0.00104426 21.7972 8.41643 12.0138 0.0025 
260 1 -0.0384302 -0.0277702 0.00684533 0 0 0 0.0452822 0.0123573 -0.025125 0.000186617 -0.00032886 -0.000881214 -11.603 -1.73911 2.37739 0.0025 
294 1 -0.0303269 -0.0262625 0.00639318 0 0 0 0.00594858 0.0393829 0.0464103 0.00296182 0.00825967 0.00919885 -4.23405 -0.784282 2.8351 0.0025 
359 1 -0.0249765 -0.0282246 0.00659416 0 0 0 -0.00820802 -0.0405765 0.0604167 -0.00333178 0.00499899 -0.0160976 -1.95219 -8.12727 -4.61076 0.0025 
288 1 -0.0159785 -0.0256184 0.006624 0 0 0 0.02372 -0.0672697 0.036346 0.000324359 0.00122925 0.000479455 -7.20596 -2.2755 6.39986 0.0025 
350 1 -0.00537233 -0.028166 0.0068731 0 0 0 -0.0628321 -0.0348132 0.104037 0.00111228 0.00267642 0.0030339 6.28599 15.0508 1.40239 0.0025 
315 1 9.76947e-05 -0.0280018 0.0068954 0 0 0 0.0787719 -0.0313447 0.01495 0.00273899 0.0116649 0.00873547 13.5644 5.61696 6.19771 0.0025 
323 1 0.0202689 -0.0275312 0.00707692 0 0 0 0.0108029 -0.0463743 -0.111015 0 0 -0.00160516 -6.77536 -4.25515 -7.18013 0.0025 
435 1 0.0312787 -0.0251072 0.00570155 0 0 0 0.0668231 -0.00648901 -0.0440541 -0.00767732 -0.00337406 -0.00641776 -13.0965 -4.36883 -0.482131 0.0025 
26 1 0.0397594 -0.0260308 0.00681381 0 0 0 0.0353471 -0.0760536 0.019723 0.00372055 0.0247578 0.00642834 5.58225 -5.02892 11.7981 0.0025 
372 1 -0.0398539 -0.0227602 0.00656005 0 0 0 -0.0826611 -0.0144236 0.050621 -0.0137127 -0.00496539 0.0132283 -5.61932 -4.28928 -1.20719 0.0025 
192 1 -0.0261556 -0.0233468 0.00666147 0 0 0 -0.0394597 0.0161179 0.043306 0.0141854 0.0025357 -0.0195186 17.3924 -2.82652 5.10594 0.0025 
163 1 -0.021172 -0.0244971 0.00653878 0 0 0 0.00377219 -0.00185554 0.0484022 0.000442471 -0.000426727 -0.000846551 -1.57174 7.74118 -3.90311 0.0025 
145 1 -0.0126641 -0.0218682 0.00674129 0 0 0 -0.0171221 -0.0220332 -0.0621226 0 0 -0.00160516 -0.00858159 -14.3226 -6.21436 0.0025 
165 1 -0.00775096 -0.0227896 0.00661028 0 0 0 -0.069621 -0.0713637 -0.0253169 -0.00443707 -0.00838908 -0.0147431 5.72205 -1.66661 5.61863 0.0025 
235 1 0.00117118 -0.0231152 0.00709262 0 0 0 0.030128 -0.00671824 0.0374826 0.00486182 -0.00484081 0.0173597 -16.459 4.21867 13.7582 0.0025 
57 1 0.00605743 -0.0243856 0.00602089 0 0 0 -0.00249937 -0.0686526 0.0539687 -0.0265824 -0.0107862 -0.00292703 0.630833 4.03397 0.225307 0.0025 
219 1 0.0105373 -0.02231 0.00654446 0 0 0 0.026844 -0.0294531 0.00114246 0.0205581 0.00603959 -0.000486185 -15.7936 20.3368 -2.87017 0.0025 
269 1 0.0211936 -0.0225307 0.00621345 0 0 0 -0.0339661 -0.0478384 0.0674812 -0.000150537 -0.00479667 -0.00149459 -3.29187 17.7547 13.3725 0.0025 
391 1 0.0265221 -0.0232317 0.00562381 0 0 0 0.0434147 -0.00438071 -0.0396702 0.00086557 0.000628384 -0.00279165 -9.13654 10.2878 -9.33227 0.0025 
282 1 0.0420572 -0.0215048 0.00686909 0 0 0 -0.0283187 -0.00680007 0.003159 -0.0107766 -0.0230935 0.000841187 11.3821 -2.6616 -3.29354 0.0025 
439 1 -0.0435035 -0.0190253 0.00680231 0 0 0 0.0241605 -0.04976 -0.0458997 0 0 -0.00160516 -7.01054 -7.88343 -3.20572 0.0025 
69 1 -0.0366775 -0.0185895 0.00668211 0 0 0 -0.00323034 0.0143915 0.0598864 -0.000170796 -0.000587767 -0.00229905 -3.18975 -0.516555 -0.246569 0.0025 
382 1 -0.0328233 -0.0210493 0.00443971 0 0 0 0.0756835 -0.0447116 -0.0507625 0.0159677 0.0107163 -0.0263302 4.51625 1.41813 4.67038 0.0025 
371 1 -0.027764 -0.0185592 0.00660561 0 0 0 -0.0216728 -0.0180861 -0.00285729 0.00613302 -0.004001 -0.00175193 -9.8298 4.34618 3.31437 0.0025 
120 1 -0.0225801 -0.0196937 0.00658891 0 0 0 0.0270546 -0.0446291 0.0298175 0.00349928 -0.013183 -0.0240213 3.69431 -4.74811 -13.3045 0.0025 
201 1 -0.0175604 -0.0207219 0.00665892 0 0 0 -0.04753 -0.0148285 0.0116907 1.33214e-05 3.29689e-05 -0.00155404 -4.96317 21.139 -2.28114 0.0025 
41 1 -0.00258298 -0.0197031 0.0064456 0 0 0 -0.0602399 -0.00988626 -0.0294051 -0.0245783 -0.00441994 0.000566903 0.355276 1.8579 -9.43696 0.0025 
353 1 0.00209864 -0.0182219 0.00570423 0 0 0 0.0842938 -0.0259904 -0.0720111 0.0168228 0.00389686 0.00280668 -13.9794 11.819 -0.898553 0.0025 