ITEM: TIMESTEP
8000
ITEM: NUMBER OF ATOMS
1800
ITEM: BOX BOUNDS mm mm mm
-0.05 0.05
-0.05 0.05
0 0.15
ITEM: ATOMS id type x y z ix iy iz vx vy vz fx fy fz omegax omegay omegaz radius 
255 1 -0.00327906 -0.0464808 0.00311284 0 0 0 -0.0323692 -0.157203 0.098669 -0.0920585 -0.0539617 0.0110599 5.05087 -49.9676 -63.6366 0.0025 
241 1 0.00496453 -0.0473523 0.00310404 0 0 0 0.0774893 -0.161038 -0.145537 -0.0263617 0.24952 0.0109387 38.4173 45.7884 -23.008 0.0025 
150 1 0.0009054 -0.0439254 0.00276159 0 0 0 0.570906 0.0604948 0.354008 0.0920585 0.0539617 -0.0142703 32.7828 28.0689 -22.9771 0.0025 
279 1 0.0118565 -0.0443591 0.00254324 0 0 0 0.0194633 -0.295438 0.284703 0 0 -0.00160516 -9.53579 41.7256 -4.23231 0.0025 
37 1 -0.0218797 -0.0402522 0.00276789 0 0 0 -0.277357 -0.258726 0.126857 0 0 -0.00160516 -26.1246 -67.4672 -50.0206 0.0025 
18 1 -0.0133601 -0.0414793 0.00297604 0 0 0 -0.044941 0.0348805 0.0422265 0.0603916 0.227361 -0.193859 -3.346 -67.9851 -18.9062 0.0025 
230 1 0.00734085 -0.0405902 0.00320908 0 0 0 0.320621 -0.329424 -0.00836925 0.0601703 0.0468297 -0.0871806 -96.8164 -3.80313 -83.4098 0.0025 
409 1 0.0175857 -0.0439721 0.0041378 0 0 0 -0.1968 0.337545 -0.122401 0.0543629 0.0129099 -0.118854 8.73949 1.48214 -9.97885 0.0025 
103 1 -0.0176036 -0.0364557 0.00283087 0 0 0 -0.0307155 0.118489 0.0759399 0 0 -0.00160516 33.9679 29.4477 7.01664 0.0025 
438 1 -0.0121679 -0.0364774 0.00269466 0 0 0 0.152057 0.171675 -0.111089 0.00917974 0.0183556 -0.0529527 -33.5048 37.0588 -37.076 0.0025 
141 1 0.00301518 -0.0380873 0.00263583 0 0 0 0.282594 0.470601 0.222328 0 0 -0.00160516 -58.6417 67.9451 8.28247 0.0025 
101 1 0.0135422 -0.0389397 0.00250727 0 0 0 0.449477 -0.15985 -0.472788 0 0 -0.00160516 10.9446 -51.8116 30.8685 0.0025 
332 1 0.0193542 -0.0376318 0.00523696 0 0 0 0.275664 0.0230329 0.394109 0 0 -0.00160516 -1.40351 -115.133 -95.5377 0.0025 
309 1 0.0286253 -0.036705 0.00448156 0 0 0 0.0484306 0.28067 -0.0558823 0.137843 0.0801245 -0.148802 39.0186 -24.0988 32.5666 0.0025 
244 1 -0.0317028 -0.0354201 0.00267162 0 0 0 0.182117 -0.38898 0.117169 0.0300112 0.0368918 -0.00238944 25.4524 40.3171 -1.48594 0.0025 
95 1 -0.0226651 -0.0350931 0.00383149 0 0 0 0.215547 0.273284 -0.0010782 0.0827689 -0.0420403 -0.124489 56.0873 -5.10427 -16.4424 0.0025 
218 1 -0.00640361 -0.0350896 0.00291602 0 0 0 0.0111346 -0.187312 -0.202921 -0.109271 -0.0441541 -0.0916336 -25.1417 -31.0665 -13.2911 0.0025 
126 1 0.00838582 -0.0357024 0.00267086 0 0 0 0.103744 -0.316892 0.217396 0 0 -0.00160516 99.0668 -40.1772 9.30677 0.0025 
369 1 0.0340172 -0.0327256 0.00252751 0 0 0 -0.275217 0.307042 0.53143 0 0 -0.00160516 -93.5624 -64.6363 -25.8378 0.0025 
10 1 -0.0353994 -0.0315045 0.00519999 0 0 0 0.13419 -0.200951 0.283153 -0.0294681 0.025018 -0.0599951 -33.7062 35.9482 -43.8725 0.0025 
81 1 -0.0178697 -0.0299954 0.00309186 0 0 0 0.0679613 0.272542 -0.0915413 0 0 -0.00160516 49.6502 -16.984 -65.5777 0.0025 
378 1 -0.0121345 -0.0306175 0.00262846 0 0 0 -0.0324994 0.0241699 0.645009 0 0 -0.00160516 -9.98988 -10.8366 -25.0977 0.0025 
286 1 -0.00800838 -0.0276823 0.00275737 0 0 0 0.116299 0.275365 0.11299 0 0 -0.00160516 -53.1255 -67.4869 21.1508 0.0025 
295 1 -0.00288216 -0.0334102 0.00587776 0 0 0 0.0437636 -0.0768868 0.164464 0.109271 0.0441541 0.0884233 4.99597 -89.436 12.7832 0.0025 
68 1 0.00338327 -0.0330363 0.00286506 0 0 0 -0.22012 -0.456032 0.408801 -0.128338 0.0164591 -0.188146 25.3948 61.0107 -5.82559 0.0025 
440 1 0.0185747 -0.0306215 0.00273065 0 0 0 0.359463 0.146472 -0.0504789 0 0 -0.00160516 20.1937 38.0621 -4.15009 0.0025 
134 1 0.0233774 -0.0326111 0.00253932 0 0 0 0.165961 -0.543455 -0.185492 0 0 -0.00160516 72.184 28.9652 32.1743 0.0025 
205 1 0.0374704 -0.0284912 0.00305259 0 0 0 -0.221242 0.150426 0.0823099 0.020864 -0.00275248 -0.00964568 8.23417 55.1854 10.2454 0.0025 
434 1 -0.0187861 -0.0250221 0.00447246 0 0 0 -0.339008 -0.669887 -0.128033 0 0 -0.00160516 -65.1631 11.5064 -55.4827 0.0025 
225 1 0.000263583 -0.0268706 0.00248161 0 0 0 0.296322 -0.129766 0.369147 -0.00239957 -0.00533188 0.00929673 14.5408 -22.1207 -33.6522 0.0025 
346 1 0.0149569 -0.026177 0.00292495 0 0 0 -0.326436 -0.254796 0.0388857 0 0 -0.00160516 -31.2118 -15.5368 20.3325 0.0025 
296 1 -0.038736 -0.0254248 0.00403272 0 0 0 -0.102483 -0.149436 0.0851203 -0.0149128 0.0641361 -0.107573 -81.9652 -35.8642 18.6408 0.0025 
306 1 -0.0327983 -0.0254721 0.00291104 0 0 0 -0.477934 0.528231 -0.490211 -0.045308 -0.165223 -0.0302169 21.0237 -22.0031 42.7126 0.0025 
433 1 -0.00987445 -0.0224628 0.00252258 0 0 0 -0.241297 0.126584 0.0175135 0 0 -0.00160516 -35.4456 -39.9053 9.71844 0.0025 
75 1 0.0121428 -0.0214819 0.00253069 0 0 0 -0.210477 0.141459 0.256371 0 0 -0.00160516 13.4397 -11.7653 30.6134 0.0025 
13 1 0.0236135 -0.0278989 0.00485222 0 0 0 0.115714 -0.436056 0.431594 0 0 -0.00160516 119.682 -2.34222 18.5784 0.0025 
448 1 0.0335199 -0.0185791 0.00322602 0 0 0 -0.170986 0.291292 0.506575 0 0 -0.00160516 -66.5867 -26.0402 -32.3902 0.0025 
339 1 0.0419735 -0.0222955 0.00264561 0 0 0 0.190125 0.362185 0.193103 -0.0272419 0.013019 -0.00240016 -3.4908 9.62375 -50.3085 0.0025 
58 1 -0.0417074 -0.0210702 0.00285131 0 0 0 -0.581074 0.409855 -0.326108 0 0 -0.00160516 12.9043 -41.711 -52.4782 0.0025 
404 1 -0.0362686 -0.0212694 0.00272403 0 0 0 0.432191 -0.268903 0.0933734 0 0 -0.00160516 -21.3777 -82.9678 -69.7956 0.0025 
421 1 -0.0147529 -0.0212655 0.00299455 0 0 0 -0.0521312 -0.290323 -0.165366 0 0 -0.00160516 8.60176 -72.4173 48.6824 0.0025 
87 1 0.00171927 -0.0220992 0.00264241 0 0 0 -0.227266 -0.225849 -0.374242 -0.0606233 0.0474195 -0.100463 -47.6199 -3.93717 19.3012 0.0025 
32 1 0.00694468 -0.0227459 0.00265388 0 0 0 0.11208 -0.172438 -0.109491 0 0 -0.00160516 30.292 -38.4529 -46.6539 0.0025 
366 1 0.0163307 -0.0180507 0.00247936 0 0 0 -0.170856 -0.0251929 -0.066957 0.00101873 0.00014195 0.0189663 -7.43187 57.3311 40.364 0.0025 
159 1 0.021134 -0.0201521 0.00259096 0 0 0 -0.159993 -0.29571 0.236298 0 0 -0.00160516 33.2617 11.5954 -23.8313 0.0025 
149 1 0.0275592 -0.0195269 0.00294115 0 0 0 0.0519447 -0.175459 0.278634 0 0 -0.00160516 20.7808 -5.51158 59.045 0.0025 
74 1 -0.0395928 -0.0157162 0.00348337 0 0 0 -0.0550127 0.237349 0.0469837 0.0659042 -0.00220211 0.00607406 40.3564 -9.15163 -13.3457 0.0025 
121 1 -0.0317732 -0.0145313 0.00244694 0 0 0 -0.29284 -0.539058 -0.186218 0.00097426 0.00409608 0.0826018 58.0219 -80.3409 -20.7958 0.0025 
380 1 -0.0165753 -0.0166105 0.00285154 0 0 0 -0.206549 -0.166347 0.0627768 0 0 -0.00160516 -82.3899 -57.6288 5.00061 0.0025 
40 1 -0.006745 -0.0176153 0.00278728 0 0 0 0.189027 0.165796 -0.286019 0 0 -0.00160516 19.9657 -18.3951 -11.4678 0.0025 
405 1 0.00249627 -0.0164612 0.00271667 0 0 0 0.00214156 -0.274172 -0.150382 0.0929829 0.0426209 -0.0670561 -7.56652 50.9829 21.0073 0.0025 
7 1 0.0118513 -0.0141927 0.00253841 0 0 0 -0.419748 -0.149389 0.43095 -0.109894 -0.00835721 -0.132624 9.97059 -18.4444 1.64145 0.0025 
196 1 -0.0460429 -0.0116997 0.00343862 0 0 0 -0.215794 -0.105352 -0.17756 0.00550629 0.00134211 -0.00132725 59.6619 6.06014 -35.5082 0.0025 
336 1 -0.0377766 -0.0123895 0.00671012 0 0 0 -0.55401 -0.153979 0.34182 -0.0451724 -0.0141385 -0.190406 -26.3027 -63.8474 1.75996 0.0025 
445 1 -0.0224734 -0.0168201 0.00272677 0 0 0 -0.37057 -0.223358 -0.0683916 -0.0519323 0.202597 -0.144466 29.1063 -63.8429 -48.9131 0.0025 
158 1 -0.0119878 -0.0146407 0.00315725 0 0 0 -0.228199 -0.157806 -0.0186946 0 0 -0.00160516 -44.358 7.10236 16.0334 0.0025 
226 1 -0.00672953 -0.0118331 0.00292465 0 0 0 0.0372849 -0.111518 0.201553 0 0 -0.00160516 51.5881 47.0753 -25.2814 0.0025 
142 1 0.0196396 -0.0140717 0.0024962 0 0 0 -0.374378 -0.205291 -0.351067 -0.0101032 0.0161228 -0.0165019 -33.9365 0.878676 33.0704 0.0025 
2 1 0.0245296 -0.014944 0.00296344 0 0 0 -0.0462984 0.0322965 -0.00386029 0.00292242 -0.000633755 -0.00142517 -27.1385 -33.3441 -14.4933 0.0025 
20 1 0.0288501 -0.0122301 0.00242437 0 0 0 0.0576612 -0.415518 0.0296044 0.208353 -0.149122 -0.0201846 14.9742 -36.5653 10.9181 0.0025 
426 1 0.0393637 -0.0106557 0.00308103 0 0 0 0.291415 0.26722 -0.167614 0 0 -0.00160516 -46.6953 -25.7914 -27.388 0.0025 
238 1 -0.0415052 -0.00826448 0.0026957 0 0 0 -0.0517814 0.475926 0.170386 -0.264625 -0.087551 -0.0544026 -12.8095 17.7312 -38.6573 0.0025 
449 1 -0.0314208 -0.00918464 0.00283434 0 0 0 -0.390219 -0.280646 0.0552814 0 0 -0.00160516 -2.24836 -50.6245 22.5812 0.0025 
331 1 -0.0186225 -0.011311 0.0028283 0 0 0 -0.301285 -0.221637 0.211141 0.0557727 -0.129505 -0.190152 34.9561 -45.1871 -26.0598 0.0025 
117 1 -0.0128947 -0.00853126 0.00357677 0 0 0 -0.158913 -0.0912849 0.0952841 0.00510613 -0.0705541 -0.0509784 2.70688 -30.2111 -77.1393 0.0025 
22 1 -0.00117959 -0.0123439 0.00299566 0 0 0 0.000756099 -0.145012 0.15484 0 0 -0.00160516 7.23206 -21.549 11.6227 0.0025 
24 1 0.00930282 -0.00762194 0.0023227 0 0 0 -0.139051 0.350487 -0.0681799 -0.00397027 -0.01373 0.448773 -32.8825 -19.759 30.7847 0.0025 
92 1 0.0255434 -0.00867281 0.00263019 0 0 0 0.0869322 -0.185172 -0.0453626 -0.170469 0.167476 0.00991083 22.6757 -48.8562 -68.0095 0.0025 
949 1 -0.0369045 -0.0067619 0.00246463 0 0 0 -0.255462 0.14089 0.0816836 0.206777 -0.0602815 -0.126274 -81.2884 -11.721 24.7211 0.0025 
252 1 -0.0183151 -0.00559145 0.00246928 0 0 0 -0.173289 0.51824 0.347842 0.000412204 -0.00144626 0.028472 25.5397 -3.01906 81.5259 0.0025 
61 1 -0.00474007 -0.00479665 0.00270452 0 0 0 -0.189434 -0.0217547 0.266611 0.15448 -0.100243 -0.062779 -7.25073 -79.7607 -35.787 0.0025 
202 1 0.00431779 -0.00661582 0.00288861 0 0 0 0.0456592 -0.0103981 0.215711 0 0 -0.00160516 34.5658 -44.5477 -109.424 0.0025 
80 1 0.017497 -0.00390534 0.0024061 0 0 0 0.0181382 0.00350148 -0.0918986 -0.00810682 -0.00516188 0.190609 6.75835 -5.47472 -31.4858 0.0025 
237 1 0.0335962 -0.00829499 0.00318752 0 0 0 0.318093 -0.0776772 -0.161167 -0.0230607 0.173112 0.0156801 10.1294 63.5238 37.5165 0.0025 
425 1 0.0368342 -0.0032258 0.00312808 0 0 0 -0.0516836 0.108775 -0.0880869 0 0 -0.00160516 -48.002 24.9567 -29.2731 0.0025 
305 1 0.0472646 -0.00351431 0.00289607 0 0 0 0.0369206 -0.172734 0.50901 0.0273651 0.0956677 -0.127767 49.583 -1.28996 -41.9261 0.0025 
1341 1 -0.038521 -0.000420615 0.00238273 0 0 0 -0.175003 0.455461 -0.237523 0.00365704 -0.0130399 0.269254 7.62938 -17.2105 34.1547 0.0025 
342 1 -0.0249032 -0.0013902 0.00256569 0 0 0 -0.145395 0.0485512 -0.298006 -0.199817 0.0361505 -0.132893 -12.6117 29.3818 11.0326 0.0025 
251 1 -0.00869387 -0.00198816 0.00250228 0 0 0 -0.219651 0.086799 0.12264 -0.222827 0.131889 -0.0822807 1.70256 10.4787 -26.3595 0.0025 
855 1 0.0140635 -0.0102068 0.0694596 0 0 0 0 0 -1.28475 0 0 -0.00160516 0 0 0 0.0025 
347 1 0.000710067 -0.00260949 0.00242925 0 0 0 -0.146312 -0.463774 0.0679818 -0.154717 -0.110303 0.11245 -22.8442 -27.1318 -12.5393 0.0025 
154 1 0.0101414 -0.00175577 0.00276953 0 0 0 -0.302009 -0.248955 -0.110892 0 0 -0.00160516 36.3337 -29.7627 -15.6622 0.0025 
408 1 0.0269717 -0.00393351 0.0058638 0 0 0 -0.0360996 0.0498017 -0.154899 -0.188587 0.109744 -0.0996505 -16.6391 70.9934 -53.4823 0.0025 
858 1 -0.0088942 -0.0198833 0.0633379 0 0 0 0 0 -1.28475 0 0 -0.00160516 0 0 0 0.0025 
189 1 0.000407619 -0.0468722 0.00785147 0 0 0 -0.0185506 -0.331957 -0.298593 0 0 -0.00160516 -90.9037 -94.045 21.7875 0.0025 
217 1 -0.0173112 -0.0443036 0.00375959 0 0 0 -0.117214 -0.0747696 -0.107921 -0.0422096 0.0452462 0.0259488 42.4458 90.3685 19.1645 0.0025 
410 1 -0.00830639 -0.0464692 0.00239101 0 0 0 0.171936 -0.704729 0.0413751 -0.00522013 0.0106402 0.235429 49.8599 -46.6135 34.9815 0.0025 
29 1 0.00899286 -0.0452555 0.00777353 0 0 0 -0.118993 -0.0425334 0.163711 0 0 -0.00160516 -27.1885 -36.873 -24.0901 0.0025 
243 1 0.0156826 -0.0446485 0.00860913 0 0 0 0.23756 -0.269206 0.350315 -0.0543629 -0.0129099 0.115644 21.9132 75.971 17.8846 0.0025 
411 1 -0.0196777 -0.0415915 0.00724654 0 0 0 0.0257112 -0.0114281 0.45187 0 0 -0.00160516 10.8691 80.7049 -14.3236 0.0025 
85 1 -0.00361318 -0.0396367 0.0030793 0 0 0 0.692555 0.186068 -0.336951 0 0 -0.00160516 90.0033 -30.3121 16.006 0.0025 
257 1 0.0047317 -0.0423727 0.00697104 0 0 0 -0.0527831 -0.248824 0.363071 -0.0601703 -0.0468297 0.0839703 62.6078 1.93481 -52.1151 0.0025 
60 1 0.0122599 -0.0403656 0.007204 0 0 0 0.113896 -0.328953 0.023834 0 0 -0.00160516 -18.7988 -33.461 -30.2296 0.0025 
413 1 -0.0270894 -0.0379877 0.00256722 0 0 0 -0.0278869 -0.0947091 -0.221504 0 0 -0.00160516 -40.8609 -26.9995 -18.9494 0.0025 
354 1 -0.00880043 -0.0417061 0.00531902 0 0 0 0.330359 -0.401107 -0.0168754 0 0 -0.00160516 -44.1917 43.4644 40.6518 0.0025 
389 1 0.0240993 -0.0384704 0.00348751 0 0 0 -0.0690777 -0.138483 -0.117539 -0.0339761 -0.0116603 -0.00787089 -11.2902 65.844 61.9632 0.0025 
266 1 -0.0304013 -0.0311127 0.00514672 0 0 0 0.308418 -0.0751144 0.0674189 0 0 -0.00160516 -26.7204 29.3693 76.8785 0.0025 
167 1 -0.00943251 -0.0337454 0.00705785 0 0 0 0.078744 -0.200453 -0.592561 0 0 -0.00160516 90.9943 -35.4975 -8.75041 0.0025 
268 1 0.00689919 -0.0324453 0.00620373 0 0 0 -0.365058 0.331785 -0.46653 0.131865 0.00560038 0.0491283 -102.545 45.4744 -5.41149 0.0025 
194 1 0.0255598 -0.0322228 0.00825112 0 0 0 -0.237699 0.233518 -0.0709923 0 0 -0.00160516 -28.7721 61.1478 -56.2872 0.0025 
113 1 -0.0251534 -0.0299727 0.00403433 0 0 0 -0.192692 -0.201696 -0.108328 0.00216769 -0.00566773 -0.00495612 -63.3345 4.17557 -5.63768 0.0025 
115 1 0.000695497 -0.0290439 0.0075597 0 0 0 -0.188267 -0.141878 -0.404044 0 0 -0.00160516 -8.34585 -44.2929 -7.69417 0.0025 
220 1 0.0126543 -0.0330903 0.00254723 0 0 0 0.00155544 -0.0817808 -0.241359 0 0 -0.00160516 -63.6926 33.0885 0.502578 0.0025 
66 1 0.0286144 -0.0315796 0.00238602 0 0 0 -0.339122 -0.0973464 0.0378477 0.012508 -0.00209698 0.252046 64.1693 6.25552 -1.95472 0.0025 
294 1 -0.0268499 -0.0260427 0.00659189 0 0 0 -0.221404 -0.0163026 -0.286347 -0.00216769 0.00566773 0.0017458 -66.6943 0.397331 -7.23675 0.0025 
265 1 -0.0120999 -0.0262822 0.00704152 0 0 0 0.392578 -0.214585 -0.748645 -0.050135 -0.029114 -0.0423212 -98.4322 -3.72466 40.322 0.0025 
30 1 0.00620475 -0.0287993 0.00234911 0 0 0 0.205998 -0.187513 -0.533008 -0.0144334 0.0138623 0.398639 -4.06083 0.197732 -47.752 0.0025 
132 1 0.0328071 -0.0277562 0.00462209 0 0 0 0.121188 0.171523 -0.286234 -0.020864 0.00275248 0.00643536 -36.4306 -55.9873 19.7604 0.0025 
195 1 -0.0245646 -0.0234254 0.0027164 0 0 0 0.247102 -0.270891 -0.18373 -0.00742386 -0.00574325 -0.00683154 51.2515 -3.98289 70.5493 0.0025 
334 1 -0.00485884 -0.0222159 0.00348982 0 0 0 0.145733 -0.276807 -0.707479 0 0 -0.00160516 49.7829 10.196 -4.44955 0.0025 
76 1 0.00398264 -0.0237089 0.00669186 0 0 0 -0.211416 0.0421668 -0.187048 -0.0978978 0.127228 0.00654571 -21.3947 22.1421 40.3351 0.0025 
424 1 0.0180796 -0.0231 0.00566383 0 0 0 -0.0367423 -0.130621 0.0642552 -0.0268707 -0.0764342 -0.101273 -84.2317 60.765 -5.41308 0.0025 
285 1 0.0281579 -0.0251166 0.00306129 0 0 0 -0.234454 -0.0856353 -0.632958 0 0 -0.00160516 -62.5415 -65.311 -11.0358 0.0025 
365 1 -0.0313059 -0.0208996 0.00379664 0 0 0 0.0846345 -0.0816789 -0.202445 0.045308 0.165223 0.0270066 -1.57692 61.8456 72.3858 0.0025 
15 1 -0.021278 -0.02074 0.00533271 0 0 0 -0.250892 -0.367846 -0.148104 0.0593562 -0.196853 0.146483 -24.1291 85.2976 -1.37222 0.0025 
293 1 -0.0137371 -0.018459 0.00731205 0 0 0 0.323449 0.242145 0.374305 -0.0200701 0.0254532 -0.0281281 -19.6717 14.7341 -57.9179 0.0025 
52 1 -0.00129757 -0.0179814 0.00544296 0 0 0 0.171439 -0.258366 0.00472778 -0.0851632 -0.0532968 0.0585416 71.7373 -5.35873 17.2561 0.0025 
386 1 0.0375782 -0.0159144 0.00564912 0 0 0 0.493336 0.39456 0.0569501 0 0 -0.00160516 6.51993 35.1461 -75.2654 0.0025 
282 1 0.0404139 -0.0198448 0.00708878 0 0 0 0.184696 0.0424143 0.218103 0 0 -0.00160516 20.2587 -24.7525 76.5421 0.0025 
231 1 -0.0443471 -0.0165401 0.00245085 0 0 0 -0.307856 0.034186 0.21256 -0.0695204 -0.00949016 0.04809 -29.913 -13.4889 -27.9385 0.0025 
439 1 -0.0413516 -0.0184323 0.00764613 0 0 0 0.0656429 -0.0722377 0.132394 0 0 -0.00160516 -8.93878 84.3841 24.156 0.0025 
9 1 -0.0272857 -0.0161634 0.00397124 0 0 0 -0.16399 0.0988704 -0.115914 -0.000492818 0.00212399 -0.0034322 -30.0435 -42.896 21.5513 0.0025 
383 1 0.00466634 -0.0177044 0.00703445 0 0 0 -0.0920739 0.150249 0.34251 0.000614991 -0.00208428 0.000619004 -43.462 36.9233 -69.1825 0.0025 
273 1 0.0100443 -0.0178163 0.0054693 0 0 0 0.067039 -0.162337 -0.29 -0.077565 -0.0970642 -0.152046 19.5533 -19.7803 15.7186 0.0025 
313 1 0.0344004 -0.0131088 0.00288872 0 0 0 0.518939 0.240338 0.0819813 0.0230607 -0.173112 -0.0188904 -115.496 56.3661 67.2309 0.0025 
104 1 0.0433372 -0.0158509 0.00325607 0 0 0 0.181615 0.061501 0.210265 0 0 -0.00160516 28.9211 52.6904 -49.5567 0.0025 
36 1 -0.0253084 -0.0116001 0.00280952 0 0 0 -0.316418 -0.558006 -0.526106 0 0 -0.00160516 -1.58963 -33.6801 -0.17336 0.0025 
321 1 -0.00427476 -0.0141827 0.00665656 0 0 0 0.021006 -0.162641 0.146846 -0.0532742 0.0211051 -0.137855 -72.047 16.027 17.7134 0.0025 
240 1 0.00593359 -0.0116162 0.00260917 0 0 0 -0.120847 0.196632 -0.00259772 0 0 -0.00160516 22.7887 35.7043 -7.8297 0.0025 
450 1 0.0403936 -0.00982981 0.00808839 0 0 0 0.124433 0.134952 -0.345582 0.130582 0.0412879 -0.0295045 44.2579 -15.1254 -13.8984 0.0025 
362 1 0.0444753 -0.0099029 0.0033473 0 0 0 -0.336827 -0.211791 -0.069535 0 0 -0.00160516 -4.83265 7.77253 -25.5693 0.0025 
326 1 -0.0153233 -0.0132466 0.00690219 0 0 0 -0.0650961 0.0906498 -0.366947 -0.0825356 -0.0244605 -0.115944 12.8697 -18.4983 -34.1942 0.0025 
38 1 0.00222269 -0.00830959 0.00754215 0 0 0 -0.346505 -0.0907698 -0.100626 0.0468413 -0.04456 -0.334482 -56.0464 -23.4352 -29.7325 0.0025 
233 1 0.015451 -0.00914462 0.00335827 0 0 0 0.0817805 0.166919 0.30705 0 0 -0.00160516 -5.42819 25.2596 20.191 0.0025 
338 1 0.0205555 -0.00890125 0.00242801 0 0 0 0.260999 -0.104067 -0.566565 -0.00545216 0.00563251 0.137284 -11.3973 67.891 -59.5741 0.0025 
292 1 -0.0466063 -0.00639842 0.00377275 0 0 0 0.274882 0.0994937 -0.305912 0 0 -0.00160516 -24.0693 -32.6727 8.25414 0.0025 
155 1 -0.0396444 -0.00536041 0.00728777 0 0 0 0.244329 0.179257 0.188176 0.205893 -0.0281322 -0.0564841 -78.1684 -63.7564 -2.94911 0.0025 
367 1 -0.0303635 -0.00423723 0.0025074 0 0 0 -0.0158649 0.311358 -0.0989065 -1.07258e-05 0.000216861 -0.00136371 10.1047 -47.1371 -45.0405 0.0025 
49 1 -0.0242401 -0.00670056 0.00439647 0 0 0 0.0696495 -0.466676 -0.258824 0.0190806 0.0206449 -0.242209 33.4427 -28.9262 -89.6206 0.0025 
328 1 -0.0134319 -0.00452032 0.00639586 0 0 0 -0.108362 -0.294055 -0.0647498 -0.021215 0.0755569 0.048218 -6.73505 38.7485 6.47885 0.0025 
278 1 -0.00866452 -0.00589769 0.00603536 0 0 0 0.0915208 0.0591969 -0.525829 -0.0330938 0.0951953 -0.0592051 -80.9706 -64.0827 58.4894 0.0025 
191 1 0.0130412 -0.00430969 0.00595523 0 0 0 -0.151198 -0.297787 -0.0731501 0 0 -0.00160516 49.639 -19.3449 58.9402 0.0025 
1046 1 0.0227824 -0.00405736 0.00268237 0 0 0 0.299333 0.181589 0.331901 0 0 -0.00160516 -7.74129 29.1014 -36.1327 0.0025 
254 1 0.0231563 -0.00694352 0.00717506 0 0 0 -0.240125 -0.257108 -0.0956028 0.0250472 -0.00490803 -0.00237098 -2.41221 -22.9302 -4.58584 0.0025 
122 1 0.0421433 -0.00493178 0.0050864 0 0 0 -0.0963052 -0.318441 0.30297 -0.00833516 0.00291086 -0.00535789 -23.1778 -89.5759 11.4964 0.0025 
852 1 -0.0397642 -0.0105896 0.072485 0 0 0 0 0 -1.28475 0 0 -0.00160516 0 0 0 0.0025 
945 1 -0.0433466 -0.00242813 0.00247793 0 0 0 -0.459086 -0.261661 0.457475 0.000665991 0.000343452 0.0133815 39.6262 -57.4275 29.2409 0.0025 
1337 1 -0.0207573 -0.00202814 0.0050194 0 0 0 0.575124 0.149888 -0.846256 0.199817 -0.0361505 0.129683 73.9562 -51.0763 -74.6058 0.0025 
287 1 0.0076341 -0.00474416 0.0062162 0 0 0 -0.0515405 -0.0856705 0.236211 0.0203212 0.0224763 -0.0693862 20.9782 -42.8435 15.396 0.0025 
514 1 0.0137588 -0.00546262 0.0616082 0 0 0 0 0 -1.28475 0 0 -0.00160516 0 0 0 0.0025 
4 1 0.00482995 -0.0457741 0.0107301 0 0 0 -0.0701596 0.238882 0.0933646 0 0 -0.00160516 43.9335 31.5568 -44.6562 0.0025 
352 1 -0.0128197 -0.0446973 0.0065812 0 0 0 -0.123352 0.443759 0.279487 0.0240152 -0.167637 0.168643 7.05358 -7.82903 3.01111 0.0025 
73 1 -0.00828043 -0.0467003 0.00862992 0 0 0 0.666608 0.589902 -0.827479 0 0 -0.00160516 51.6726 0.225584 -31.4013 0.0025 
416 1 -0.00335178 -0.0469322 0.0117096 0 0 0 0.0659523 -0.445224 0.343504 -0.0114945 0.00249345 -0.0148493 -4.37094 -26.269 11.8187 0.0025 
28 1 -0.00502803 -0.0427932 0.00872761 0 0 0 -0.226857 -0.177137 -0.28312 0.0020111 -0.00258095 -0.00200032 -14.2314 -13.4894 0.663646 0.0025 
302 1 0.02043 -0.0427918 0.00829908 0 0 0 0.200179 0.0621927 0.107518 0 0 -0.00160516 1.61857 41.6038 -47.3739 0.0025 
102 1 -0.029886 -0.0367026 0.00770751 0 0 0 -0.132661 0.150598 0.291891 0 0 -0.00160516 5.95228 23.4802 0.277258 0.0025 
82 1 -0.0245368 -0.0390582 0.00821594 0 0 0 -0.0712829 0.020845 0.281087 0.0175217 -0.015936 -0.0437224 19.0246 -1.80669 -29.56 0.0025 
444 1 -0.0131614 -0.0382718 0.00719766 0 0 0 -0.401848 0.0541622 -0.277985 -0.00917974 -0.0183556 0.0497424 -103.988 -83.2295 62.5317 0.0025 
377 1 0.000133934 -0.0399053 0.0064005 0 0 0 0.124965 0.244871 -0.0208 0 0 -0.00160516 -41.2635 -51.5121 7.80417 0.0025 
373 1 0.00761152 -0.0380151 0.00815024 0 0 0 -0.149273 -0.0282842 -0.199294 0 0 -0.00160516 -10.0895 -31.7794 -62.201 0.0025 
234 1 0.0149112 -0.0354181 0.00673909 0 0 0 0.410538 0.253406 -0.279465 -0.0356577 -0.0256889 -0.0191158 82.6302 20.5895 17.5936 0.0025 
53 1 0.0214467 -0.0381294 0.010392 0 0 0 0.511836 -0.371206 0.0647138 0 0 -0.00160516 16.3421 -43.4351 -45.8157 0.0025 
186 1 0.025993 -0.0385866 0.00813548 0 0 0 0.0584866 -0.0533235 -0.663889 -0.103867 -0.0684642 0.151857 74.9249 -22.3141 -29.5398 0.0025 
78 1 -0.0334437 -0.0334805 0.00928453 0 0 0 -0.0455851 -0.200276 0.0741907 0.0294681 -0.025018 0.0567848 -11.0951 -16.7721 23.031 0.0025 
16 1 -0.0173065 -0.034076 0.00771601 0 0 0 -0.18842 0.124721 0.0621043 -0.123307 -0.0935882 -0.0342126 71.2552 -11.7577 -15.0468 0.0025 
70 1 0.00258056 -0.0353145 0.0071854 0 0 0 -0.144176 0.0987525 -0.198648 -0.00835107 -0.0306402 0.0509118 84.613 28.157 32.5295 0.0025 
280 1 0.0308922 -0.0321612 0.00807137 0 0 0 -0.0435108 -0.185028 -0.0849307 0 0 -0.00160516 -55.4237 35.2873 26.5604 0.0025 
260 1 -0.0382858 -0.0281309 0.00811128 0 0 0 -0.637267 0.147378 -0.582669 0.0241065 -0.0578915 0.104736 -40.8793 -25.8413 -55.6851 0.0025 
314 1 -0.0291743 -0.0308277 0.0102013 0 0 0 -0.343819 0.0458925 -0.0230603 -0.0403753 -0.0461971 -0.185728 58.3703 -25.5196 4.09402 0.0025 
182 1 -0.0213392 -0.0281523 0.00755668 0 0 0 -0.311671 -0.0977853 -0.219396 0.00620068 -0.0803033 -0.0553544 60.3187 -17.5606 -4.50674 0.0025 
8 1 -0.0134905 -0.0311069 0.00849163 0 0 0 -0.329543 0.0220518 -0.340704 0.123307 0.0935882 0.0310023 -29.4872 8.58837 -21.5436 0.0025 
291 1 -0.00683194 -0.029309 0.00736638 0 0 0 -0.156938 0.327922 -0.370564 0 0 -0.00160516 -8.88813 26.6741 -56.4784 0.0025 
213 1 0.018799 -0.0328462 0.00841895 0 0 0 0.324982 0.0929729 -0.54856 0.0356577 0.0256889 0.0159055 -56.1622 42.8772 15.069 0.0025 
223 1 0.0358204 -0.0308864 0.00716188 0 0 0 0.4502 -0.249858 0.0499925 0 0 -0.00160516 4.58611 -2.12009 24.8508 0.0025 
394 1 -0.0216297 -0.0239361 0.0100842 0 0 0 -0.141314 0.200353 -0.579905 -0.0571725 0.0584673 0.0708208 -20.6317 21.4686 -50.0763 0.0025 
165 1 -0.00760105 -0.0242563 0.00721237 0 0 0 0.360108 0.211754 -0.878064 0.0665897 0.0266762 0.00163242 66.7357 31.857 18.7077 0.0025 
164 1 -0.00272496 -0.0252906 0.00687526 0 0 0 0.439293 0.201049 -0.336375 0.000914604 -0.000194628 -0.00171552 -31.0075 -63.398 -20.9869 0.0025 
320 1 0.00696119 -0.0275063 0.00734582 0 0 0 0.0671168 -0.123226 -0.303549 -0.00143348 -0.440982 0.0393373 -65.417 6.43475 -37.8681 0.0025 
262 1 0.0143288 -0.029657 0.00711708 0 0 0 0.0243628 0.23958 -0.101508 0 0 -0.00160516 -50.829 -68.8762 -47.0797 0.0025 
307 1 0.019054 -0.0277323 0.00758905 0 0 0 0.675017 0.335937 0.332434 0 0 -0.00160516 46.0215 -65.2631 -17.8933 0.0025 
215 1 0.0291156 -0.0274153 0.00946708 0 0 0 0.613486 -0.368517 0.0825786 -0.0553693 -0.00219808 -0.00927688 -13.677 -51.178 31.4511 0.0025 
303 1 0.0380213 -0.0255754 0.0139105 0 0 0 -0.269848 -0.0635791 0.23535 0 0 -0.00160516 -16.235 8.3229 53.3802 0.0025 
372 1 -0.0412191 -0.0236594 0.0100054 0 0 0 0.337167 -0.087434 -0.254458 0.021162 0.0133222 -0.000883033 -23.9666 49.9777 -31.6138 0.0025 
55 1 -0.036688 -0.0221585 0.0078205 0 0 0 0.024127 -0.173396 -0.0573733 0 0 -0.00160516 -98.4988 16.3559 100.57 0.0025 
11 1 -0.0333385 -0.0264305 0.0086245 0 0 0 0.165615 -0.537334 -0.439477 0 0 -0.00160516 -88.4059 -45.7136 -131.115 0.0025 
163 1 -0.017265 -0.0220399 0.00874072 0 0 0 0.120499 0.536912 0.0339546 0.0509718 0.021836 -0.0202819 33.2528 9.58194 100.011 0.0025 
374 1 -0.0115311 -0.0216457 0.0104035 0 0 0 -0.0859494 -0.0910158 0.153974 -0.0500503 0.0444075 -0.0316623 19.7484 18.9979 44.5794 0.0025 
63 1 0.0311498 -0.0234115 0.0072632 0 0 0 -0.294023 -0.298714 -0.0855081 0 0 -0.00160516 89.6324 -49.981 -63.3591 0.0025 
44 1 0.0361394 -0.0236001 0.00480876 0 0 0 0.109408 0.385933 -0.0158288 0 0 -0.00160516 -7.36867 -107.161 114.793 0.0025 
187 1 -0.0263812 -0.0200417 0.00698298 0 0 0 -0.0599458 0.142849 -0.118228 0.000492818 -0.00212399 0.000221881 -22.7649 -12.4374 64.7076 0.0025 
6 1 -0.0215478 -0.0181864 0.0101316 0 0 0 -0.0537725 0.292691 -0.148952 0.018343 0.00534225 -0.0169616 -114.029 -56.6784 0.853952 0.0025 
219 1 0.0088259 -0.023042 0.0074046 0 0 0 0.0212912 0.176631 -0.309252 0.192003 0.278649 0.00796324 14.3164 7.64982 -20.0652 0.0025 
304 1 0.0238632 -0.0225535 0.00684564 0 0 0 -0.197005 -0.201105 -0.240147 0 0 -0.00160516 -57.5969 19.9354 33.8466 0.0025 
211 1 -0.0346382 -0.0171867 0.00586326 0 0 0 0.21937 -0.0902383 0.282388 0 0 -0.00160516 20.083 -22.085 18.6318 0.0025 
270 1 -0.0306289 -0.0126482 0.00799329 0 0 0 -0.0213093 0.443711 0.135686 0 0 -0.00160516 27.0006 108.593 16.1285 0.0025 
436 1 -0.0222792 -0.013955 0.00706525 0 0 0 -0.660089 0.369299 0.00589333 -0.0606199 -0.0131494 -0.0830605 -55.2516 7.07062 12.1693 0.0025 
23 1 -0.00937381 -0.0154733 0.00777046 0 0 0 -0.0152039 0.207887 -0.279445 0 0 -0.00160516 2.92824 70.8994 36.7464 0.0025 
442 1 0.00155274 -0.0136467 0.00826327 0 0 0 0.39039 0.296275 0.0744879 -0.0224617 -0.0348175 -0.0396408 -65.4192 -39.212 33.1765 0.0025 
269 1 0.0150805 -0.0192218 0.00719261 0 0 0 0.0859426 -0.167292 0.296031 -0.177494 0.0421405 -0.113926 87.0455 -34.2651 25.8476 0.0025 
140 1 0.0211267 -0.0168055 0.00636394 0 0 0 -0.0154337 -0.192206 0.245992 0.00737289 -0.0153406 0.0179673 -54.2313 37.5716 20.5556 0.0025 
183 1 0.0301326 -0.0183665 0.00715932 0 0 0 0.354024 0.0902461 -0.0606576 0 0 -0.00160516 3.42939 -37.3117 -111.093 0.0025 
105 1 -0.0450212 -0.014915 0.00748307 0 0 0 -0.462315 -0.254008 -0.122054 0 0 -0.00160516 -16.2626 -47.8565 -35.0796 0.0025 
401 1 0.00701865 -0.013311 0.00731276 0 0 0 0.340083 0.331786 0.0158764 0.00310513 0.0131992 -0.0248601 12.9673 4.37202 -55.8754 0.0025 
337 1 0.0273595 -0.0125366 0.00708103 0 0 0 -0.513925 -0.386361 -0.0893738 -0.0530318 -0.0159989 0.117726 1.85253 -69.5652 65.8015 0.0025 
322 1 0.044897 -0.0138825 0.00989935 0 0 0 -0.155298 0.102183 0.134263 0 0 -0.00160516 122.87 -26.7234 -36.912 0.0025 
136 1 -0.0420108 -0.00960788 0.007423 0 0 0 -0.555608 -0.175283 -0.0253387 -0.104648 -0.217481 0.0699774 118.061 -88.2369 -59.1099 0.0025 
181 1 -0.0345994 -0.00744068 0.00827643 0 0 0 -0.356546 -0.0228228 0.100043 0 0 -0.00160516 -90.4311 -30.8538 -24.434 0.0025 
27 1 -0.0298957 -0.00577233 0.00744317 0 0 0 -0.0599497 -0.059283 0.143394 0 0 -0.00160516 16.7002 12.3953 7.23759 0.0025 
157 1 -0.019604 -0.00847554 0.00665792 0 0 0 -0.158201 -0.340603 0.0198656 -0.0557727 0.129505 0.186941 60.2928 -50.9362 -27.1889 0.0025 
190 1 -0.00696611 -0.00990456 0.00830656 0 0 0 0.146078 -0.0434362 -0.201631 0.0928437 0.0415137 -0.143845 -18.8323 31.2298 -28.4941 0.0025 
65 1 -0.00246465 -0.00773226 0.00593037 0 0 0 -0.2893 -0.240606 0.0205685 0.044605 -0.0594846 0.0710495 -7.14768 74.6376 -4.06175 0.0025 
384 1 0.0106232 -0.00885535 0.00693393 0 0 0 0.0345395 0.00924131 -0.140643 0.0117171 -0.00979639 0.0433979 34.012 2.71416 14.8544 0.0025 
166 1 0.0199003 -0.0120237 0.00787725 0 0 0 0.0414743 -0.0150974 -0.112309 0 0 -0.00160516 21.6633 -76.6678 33.6182 0.0025 
284 1 0.0308032 -0.00599693 0.0080328 0 0 0 -0.0483764 0.287159 0.0967391 0.188023 -0.111208 0.0965864 -0.278896 -6.24921 -14.3105 0.0025 
47 1 0.0441173 -0.00806654 0.0112001 0 0 0 0.233799 0.251162 0.562311 0.0182807 -0.0423722 -0.000160519 10.0482 -66.1883 50.0733 0.0025 
246 1 -0.0445562 -0.00475728 0.011075 0 0 0 0.383478 -0.132784 -0.146165 0.00977714 -0.00684568 -0.00417368 -43.0092 55.4766 -44.7508 0.0025 
94 1 -0.0262648 -0.00244986 0.0113197 0 0 0 -0.167674 0.317694 -0.0233249 -4.9466e-05 -0.00273811 0.000708845 46.1544 23.8883 24.8939 0.0025 
1021 1 -0.00374391 -0.00355229 0.00925304 0 0 0 0.346723 0.239854 -0.245889 0 0 -0.00160516 -14.3329 -20.0454 8.23302 0.0025 
971 1 0.0183294 -0.00579847 0.00747675 0 0 0 0.0566482 0.391759 0.0925627 -0.0250472 0.00490803 -0.000839337 10.3097 -55.2251 -82.106 0.0025 
290 1 0.0367997 -0.00614715 0.00726275 0 0 0 0.0972246 0.100937 -0.0803087 0 0 -0.00160516 -51.7872 -30.2479 10.2641 0.0025 
1027 1 0.0421565 -0.00353135 0.0107978 0 0 0 0.325435 -0.275355 -0.0683735 -0.0182807 0.0423722 -0.0030498 56.1362 -36.1681 5.6998 0.0025 
1100 1 0.0465913 -0.00629916 0.00687126 0 0 0 0.349632 0.48847 -0.213125 -0.0190299 -0.0985786 0.12831 13.5919 -33.1392 33.5195 0.0025 
381 1 -0.0475322 -0.00118836 0.00929922 0 0 0 -0.071707 0.170353 -0.43176 0.0611489 0.00955378 -0.0037035 -39.5133 40.9067 -50.6357 0.0025 
1189 1 -0.0418637 -0.00113886 0.00819779 0 0 0 -0.412907 -0.129457 -0.174177 -0.106331 0.229926 0.0472604 -31.2297 -17.9644 -52.395 0.0025 
42 1 -0.0353846 -0.00328732 0.00551231 0 0 0 -0.215695 0.118525 -0.271196 0.0650064 0.164 0.152843 20.6725 60.4658 -22.6087 0.0025 