ITEM: TIMESTEP
6400
ITEM: NUMBER OF ATOMS
1800
ITEM: BOX BOUNDS mm mm mm
-0.05 0.05
-0.05 0.05
0 0.15
ITEM: ATOMS id type x y z ix iy iz vx vy vz fx fy fz omegax omegay omegaz radius 
255 1 -0.0025309 -0.0470718 0.00278322 0 0 0 -0.198194 -0.161902 -0.194777 -0.0346296 -0.0280849 -0.0094116 -37.9214 -6.62593 -136.872 0.0025 
241 1 0.005702 -0.0469008 0.00284806 0 0 0 0.0848627 -0.0999292 -0.224559 0 0 -0.00160516 39.8886 32.9892 32.292 0.0025 
150 1 0.00109771 -0.0438335 0.00372771 0 0 0 -0.298683 -0.0634464 0.0662436 -0.011647 -0.0419592 0.0115695 91.4252 -9.59804 56.2429 0.0025 
279 1 0.013414 -0.0454529 0.00297547 0 0 0 -0.244034 0.561123 0.0552486 0 0 -0.00160516 36.1894 -9.83224 29.578 0.0025 
37 1 -0.0231535 -0.0416105 0.00282946 0 0 0 0.081894 0.371814 -0.0709326 0.127045 0.228551 -0.0146791 -53.0306 -17.7144 45.0104 0.0025 
18 1 -0.0126053 -0.0415824 0.00316422 0 0 0 -0.414616 0.371689 0.197088 0.0810926 0.0310114 -0.0405388 25.3924 -32.1393 -25.8418 0.0025 
85 1 -0.0052952 -0.0425878 0.00396314 0 0 0 0.619228 0.315329 0.207546 0 0 -0.00160516 99.8069 -68.0753 -23.0961 0.0025 
103 1 -0.0175269 -0.0381245 0.00257255 0 0 0 -0.234283 0.27315 -0.177954 0 0 -0.00160516 65.9326 84.0678 1.6572 0.0025 
141 1 -0.00163191 -0.0386382 0.00309659 0 0 0 0.0750031 -0.45144 -0.191481 0 0 -0.00160516 54.0658 -29.7733 83.6539 0.0025 
389 1 0.0252035 -0.0401903 0.00315514 0 0 0 0.301015 -0.325367 0.169612 0 0 -0.00160516 -36.4267 68.9081 82.4784 0.0025 
244 1 -0.030332 -0.0327167 0.00272996 0 0 0 0.242658 0.354927 -0.140924 0 0 -0.00160516 12.0064 49.9134 39.5305 0.0025 
95 1 -0.0228774 -0.0365119 0.00265071 0 0 0 -0.0581868 -0.612443 0.257968 0 0 -0.00160516 49.3321 19.2902 -19.0705 0.0025 
438 1 -0.0131596 -0.0346752 0.00246612 0 0 0 0.0476529 -0.487222 -0.331662 0.000155994 0.0023753 0.0448192 -40.6985 27.732 -34.2453 0.0025 
218 1 -0.00600014 -0.0332088 0.00255343 0 0 0 -0.0524516 -0.391547 -0.129791 0 0 -0.00160516 17.022 -51.9961 -16.427 0.0025 
126 1 0.00701668 -0.0349722 0.0033704 0 0 0 0.116823 -0.375788 0.571891 0 0 -0.00160516 159.452 62.5944 -16.5257 0.0025 
295 1 -0.000587173 -0.0324445 0.0026916 0 0 0 -0.384181 0.425661 0.282603 -0.0169019 -0.0211565 -0.0077212 0.633959 -52.0678 -18.9347 0.0025 
220 1 0.0125493 -0.0311369 0.00425492 0 0 0 0.122731 -0.365869 0.199422 0 0 -0.00160516 -93.1056 -5.01926 8.12874 0.0025 
440 1 0.0180094 -0.0306995 0.00281549 0 0 0 -0.411283 0.448513 0.148677 0 0 -0.00160516 35.2335 13.3593 -38.8126 0.0025 
66 1 0.0287045 -0.0302689 0.00248204 0 0 0 0.732054 0.246938 0.0889058 -0.000607419 -0.00041196 0.0130737 23.8103 112.608 -78.7974 0.0025 
205 1 0.0372178 -0.0295248 0.00324112 0 0 0 0.157305 -0.283443 -0.134121 0.0157757 0.0308829 -0.127022 53.5006 47.7782 -44.1661 0.0025 
10 1 -0.0370974 -0.0291333 0.00251579 0 0 0 0.207967 -0.414839 -0.157112 0 0 -0.00160516 -97.7401 106.093 -76.6465 0.0025 
434 1 -0.0193075 -0.0265164 0.00352732 0 0 0 -0.271022 0.420132 0.114522 0.0403496 -0.0257536 -0.0143057 10.7504 6.95989 -1.29972 0.0025 
378 1 -0.0133243 -0.0296673 0.00246181 0 0 0 -0.337307 -0.138198 0.0609334 0.00234474 0.000583552 0.0467202 22.5667 -2.8083 53.2259 0.0025 
225 1 -0.00286924 -0.0260416 0.00248148 0 0 0 -0.118747 -0.151929 0.176646 -0.00023851 0.000668092 0.0125826 29.503 -58.9456 -56.7107 0.0025 
30 1 0.00778614 -0.0267783 0.00246173 0 0 0 0.0468577 -0.209033 0.357055 -0.00216295 0.000229017 0.0418956 86.6932 25.6685 16.7393 0.0025 
346 1 0.0156786 -0.0258288 0.00243294 0 0 0 0.095916 -0.118852 0.294621 -0.0484107 0.0260055 0.0350596 30.2261 -3.56777 17.8496 0.0025 
134 1 0.0225312 -0.0284066 0.00250195 0 0 0 0.163428 -0.213816 -0.200879 0 0 -0.00160516 -6.99594 5.21158 49.0297 0.0025 
306 1 -0.0322789 -0.0242499 0.00262481 0 0 0 0.207916 0.0811409 0.154795 0 0 -0.00160516 -21.9283 11.6059 -7.35414 0.0025 
421 1 -0.0161202 -0.0224016 0.00308839 0 0 0 0.32375 0.0384469 0.16523 0.00603107 0.00237264 -0.0465813 22.5797 -27.7931 48.4455 0.0025 
433 1 -0.0104293 -0.0240476 0.00311311 0 0 0 0.0248847 0.110943 0.253144 0.0461195 0.18691 -0.0937533 85.6122 -11.7928 21.7419 0.0025 
87 1 0.00230505 -0.0215936 0.00243239 0 0 0 -0.0689057 0.22899 0.0792203 -0.00168066 -0.00548384 0.113107 55.5041 -73.414 11.4966 0.0025 
448 1 0.0300846 -0.0231599 0.00253148 0 0 0 0.401185 -0.117632 0.202437 0 0 -0.00160516 -25.9241 -37.609 -32.3017 0.0025 
339 1 0.0398059 -0.0251421 0.00273787 0 0 0 -0.118411 0.075812 -0.2585 0 0 -0.00160516 -13.7212 -37.4959 -39.7281 0.0025 
58 1 -0.0388748 -0.0191515 0.00250911 0 0 0 -0.146748 0.102928 -0.136204 0 0 -0.00160516 34.7525 -56.9914 -25.9114 0.0025 
404 1 -0.0333899 -0.0190409 0.00241906 0 0 0 -0.226134 -0.0509423 -0.189389 0.00739369 0.00250047 0.154496 -16.8586 19.1679 -34.4685 0.0025 
365 1 -0.0277957 -0.0212688 0.00409557 0 0 0 -0.397066 -0.622416 0.270753 0 0 -0.00160516 28.4917 114.619 68.9888 0.0025 
32 1 0.0080329 -0.0195164 0.00268467 0 0 0 0.0829855 -0.215655 0.24921 0 0 -0.00160516 37.3538 20.1656 -65.6543 0.0025 
366 1 0.0170289 -0.0192419 0.00291255 0 0 0 0.0169573 0.00329376 0.0630831 0.18246 0.234906 -0.254935 50.4676 -39.7035 3.58962 0.0025 
380 1 -0.0161933 -0.0158623 0.0024029 0 0 0 -0.107171 0.116116 0.435495 0.000134586 0.00134897 0.189237 -68.0559 -41.9837 -16.3339 0.0025 
40 1 -0.00714097 -0.0172133 0.00256132 0 0 0 0.134984 -0.0267934 -0.629803 -0.267346 -0.0164341 -0.0777608 -22.6517 -26.6298 28.3342 0.0025 
321 1 -0.00270293 -0.0152425 0.00237302 0 0 0 -0.171916 0.0199818 -0.0879204 0.244894 0.0979801 0.27842 -8.2069 -0.03397 -33.7733 0.0025 
405 1 0.00277762 -0.0158872 0.00315554 0 0 0 -0.0956514 -0.169351 0.25071 0 0 -0.00160516 -58.9012 30.3618 -58.6197 0.0025 
7 1 0.0128695 -0.0147581 0.00276384 0 0 0 -0.317779 0.250123 0.15412 0.0624732 -0.0182643 -0.00198633 -6.57483 36.0637 -24.0406 0.0025 
104 1 0.0441391 -0.0175924 0.00260721 0 0 0 -0.394806 0.142211 0.195513 -0.00685847 0.00313891 -0.00161432 48.9684 63.6244 -47.7777 0.0025 
74 1 -0.0357918 -0.0144025 0.00295956 0 0 0 -0.324019 -0.0562398 0.105466 0 0 -0.00160516 50.618 -30.3817 43.5132 0.0025 
445 1 -0.0205978 -0.0133111 0.0028307 0 0 0 -0.0579732 0.0125961 0.103581 0 0 -0.00160516 -4.64153 -5.2191 -32.5816 0.0025 
158 1 -0.0115587 -0.0135161 0.00323014 0 0 0 -0.0141578 -0.000850091 0.126992 0 0 -0.00160516 7.38903 30.8288 21.8563 0.0025 
240 1 0.0080963 -0.013481 0.00257352 0 0 0 0.0676767 0.223337 0.323657 -0.0624732 0.0182643 -0.00122399 -9.25139 89.6217 -36.0779 0.0025 
142 1 0.0178025 -0.0134452 0.00327128 0 0 0 0.0587837 0.225271 0.271181 0 0 -0.00160516 -22.5296 -8.23945 20.0493 0.0025 
2 1 0.024812 -0.0128103 0.00244532 0 0 0 0.0701542 0.145548 0.0813057 -0.0337089 -0.102812 0.0749721 -38.7276 -30.0531 -31.362 0.0025 
362 1 0.0409023 -0.0108084 0.00255358 0 0 0 0.494219 0.212676 0.340735 -0.00191128 -0.00759985 -0.00144533 73.1749 25.2233 53.9617 0.0025 
336 1 -0.0310594 -0.00977849 0.00340941 0 0 0 -0.633483 -0.00262506 -0.0430113 0 0 -0.00160516 5.46328 8.0249 -17.362 0.0025 
331 1 -0.0195698 -0.00711716 0.0026794 0 0 0 0.322183 -0.454568 0.208069 0 0 -0.00160516 -16.334 -27.1187 81.1957 0.0025 
117 1 -0.00972 -0.00849362 0.00307074 0 0 0 0.0468796 0.141716 0.308886 -0.0684024 0.0717231 -0.019116 -20.7147 -4.55508 -43.3342 0.0025 
22 1 -0.000127671 -0.0102324 0.002541 0 0 0 0.385903 0.0925832 -0.257463 0 0 -0.00160516 20.4375 -9.06506 25.992 0.0025 
92 1 0.0264363 -0.0081742 0.00274951 0 0 0 0.275076 -0.22409 0.0978548 0.0298712 0.101227 0.00486362 54.9685 26.8819 2.48683 0.0025 
292 1 -0.0466969 -0.0061363 0.00405233 0 0 0 0.702045 -0.0131269 0.221739 0 0 -0.00160516 -53.7272 -110.283 -26.2933 0.0025 
949 1 -0.0335177 -0.00540811 0.00240566 0 0 0 0.061275 0.0584329 -0.552804 0.18876 -0.0699027 0.0380548 -24.8592 19.6131 -36.2993 0.0025 
347 1 0.00108632 -0.00312567 0.00254106 0 0 0 0.0272284 0.388738 0.0514619 -0.0111253 -0.00014987 -0.0040044 -69.3909 13.1061 -20.066 0.0025 
24 1 0.0113726 -0.0077687 0.00249527 0 0 0 0.102614 -0.595152 -0.10869 -2.85419e-05 0.000158949 0.00162466 -32.8545 -7.60312 63.6978 0.0025 
80 1 0.0160293 -0.00567368 0.0025447 0 0 0 -0.0851871 0.331359 0.210838 0 0 -0.00160516 8.33818 7.15509 -11.1327 0.0025 
408 1 0.0253831 -0.0030911 0.00293939 0 0 0 0.449166 0.207163 -0.141932 0 0 -0.00160516 -5.30322 5.59708 -57.4242 0.0025 
425 1 0.0355158 -0.00512114 0.00251941 0 0 0 0.00155969 0.00174242 -0.0127357 0 0 -0.00160516 -57.3576 -5.65667 -35.4483 0.0025 
122 1 0.0418977 -0.00592277 0.00234749 0 0 0 -0.375487 -0.0879253 0.261416 0.0153809 0.0215391 0.385913 -8.58959 -111.632 -5.16867 0.0025 
305 1 0.0472628 -0.00581708 0.00270347 0 0 0 -0.337383 0.0459615 0.118248 -0.26377 0.0282402 -0.0141871 -28.5557 16.105 10.2998 0.0025 
945 1 -0.0426021 -0.00283946 0.00405391 0 0 0 -0.11951 0.0285317 -0.0060994 0 0 -0.00160516 1.17569 -78.7462 11.5956 0.0025 
261 1 -0.0296053 -0.00106686 0.00246927 0 0 0 -0.156789 0.515477 0.0541963 -0.0953576 0.000514118 0.0229291 -85.2231 -28.1396 13.0604 0.0025 
342 1 -0.0247011 -0.00133973 0.00280532 0 0 0 0.111717 0.378235 -0.106996 0.0958028 -0.00219356 0.00860992 -32.2201 -8.40343 27.6866 0.0025 
252 1 -0.0176787 -0.00225424 0.00255888 0 0 0 0.100874 -0.155842 -0.332514 -0.110982 -0.0754909 -0.222248 -17.7607 7.46331 22.8056 0.0025 
251 1 -0.0112743 -0.00199308 0.00364319 0 0 0 -0.0037652 0.138329 0.167411 0 0 -0.00160516 -14.0968 6.42615 -32.264 0.0025 
154 1 0.0106489 -0.0012929 0.00302914 0 0 0 0.0252098 0.351526 0.102535 0 0 -0.00160516 4.61545 13.3451 -41.4873 0.0025 
1046 1 0.0200452 -0.00253517 0.00261727 0 0 0 0.389067 -0.296071 0.268794 0.00710973 -0.000856549 -0.0126004 32.577 66.6242 113.412 0.0025 
1346 1 0.0414361 -0.000908846 0.002944 0 0 0 -0.0303018 0.463656 -0.135009 0 0 -0.00160516 41.6269 -25.2818 6.44759 0.0025 
217 1 -0.0167837 -0.0433918 0.00504349 0 0 0 -0.2207 -0.140194 -0.0278972 -0.0810926 -0.0310114 0.0373285 -125.076 118.917 -2.32719 0.0025 
410 1 -0.00990606 -0.0462008 0.00360271 0 0 0 0.29157 -0.630966 0.0690502 0 0 -0.00160516 -13.6372 -6.9817 22.9086 0.0025 
29 1 0.00967336 -0.0456416 0.00690169 0 0 0 -0.00898642 -0.0536879 0.25877 0.0565076 -0.0287058 -0.0228734 -48.7045 -94.7867 18.1355 0.0025 
409 1 0.0189341 -0.0418923 0.00291567 0 0 0 0.0833048 0.352447 0.545679 0 0 -0.00160516 -121.689 28.0405 51.7525 0.0025 
101 1 0.0109037 -0.0398046 0.002978 0 0 0 0.329238 0.415464 -0.393177 -0.0108866 -0.0195184 -0.0178868 57.4896 70.2525 -0.717722 0.0025 
413 1 -0.0284196 -0.036949 0.00483052 0 0 0 0.113876 -0.402264 0.086667 -0.0186955 0.00762935 -0.041793 -15.0833 -15.3223 17.7515 0.0025 
444 1 -0.0147046 -0.0354708 0.00714644 0 0 0 0.0269135 0.383997 0.252806 0.0636712 -0.00502568 -0.140533 -64.1321 -69.5239 -9.43998 0.0025 
354 1 -0.00876567 -0.0374839 0.00648772 0 0 0 -0.316577 -0.357703 0.260604 0 0 -0.00160516 9.25429 53.4817 4.3017 0.0025 
230 1 0.00396108 -0.0398461 0.00325835 0 0 0 0.315677 -0.547773 -0.312554 0.0462766 0.0700441 -0.00697341 -29.1012 -73.4715 -57.2319 0.0025 
60 1 0.00714123 -0.0389822 0.00722142 0 0 0 -0.0512924 -0.0740484 -0.390191 0.0315098 0.0868492 -0.0254069 19.122 45.6137 6.76615 0.0025 
234 1 0.0128057 -0.03644 0.00609936 0 0 0 0.189088 -0.0106633 0.0113645 0.0108866 0.0195184 0.0146765 36.4111 -25.3922 45.4719 0.0025 
81 1 -0.0188984 -0.0315843 0.00280368 0 0 0 0.0786166 0.0849349 -0.864399 0 0 -0.00160516 -2.70161 19.9515 -15.915 0.0025 
332 1 0.0205477 -0.0353341 0.004681 0 0 0 0.0312769 -0.298706 -0.0398859 0 0 -0.00160516 35.4764 -46.4554 -22.6395 0.0025 
309 1 0.0275844 -0.0350235 0.00406018 0 0 0 0.415779 -0.117204 -0.425408 0 0 -0.00160516 -3.87645 -37.5148 29.9249 0.0025 
369 1 0.0329821 -0.0330464 0.00489568 0 0 0 -0.0237286 -0.296721 -0.5438 0 0 -0.00160516 -18.1948 48.408 9.71899 0.0025 
78 1 -0.0353652 -0.0318646 0.00728443 0 0 0 0.264996 0.0709739 0.443128 0.156147 0.145591 -0.0116381 -43.0815 -70.4588 6.26199 0.0025 
113 1 -0.0244334 -0.0299533 0.00495002 0 0 0 0.209761 0.229207 -0.809231 0.148288 -0.12854 0.0300384 7.92472 25.2386 63.8117 0.0025 
167 1 -0.00946057 -0.0314047 0.00605385 0 0 0 -0.255485 -0.1829 0.590153 0 0 -0.00160516 -14.1184 -9.44195 -34.9137 0.0025 
268 1 0.00561202 -0.0306608 0.00549409 0 0 0 0.0114574 -0.571693 -0.114318 0.0123534 -0.000872894 -0.0158726 -30.5998 -15.2016 -94.388 0.0025 
194 1 0.0242015 -0.0312648 0.00667184 0 0 0 -0.436331 -0.122246 -0.003648 0 0 -0.00160516 35.9786 -5.05779 67.7638 0.0025 
294 1 -0.0280463 -0.0267218 0.00440312 0 0 0 0.111027 0.337267 -0.0686872 -0.148288 0.12854 -0.0332488 -29.3668 42.5093 11.7456 0.0025 
265 1 -0.0138979 -0.0260451 0.0059202 0 0 0 0.331036 -0.483204 -0.46536 -0.125098 -0.0666188 0.106992 -46.0043 59.5195 61.7734 0.0025 
286 1 -0.00759495 -0.0280245 0.0027146 0 0 0 0.422835 0.0403031 0.216642 0.0789789 -0.120291 -0.0180546 53.9088 -36.0239 3.43454 0.0025 
68 1 0.00215959 -0.0283036 0.00269726 0 0 0 0.0058272 -0.310585 -0.552604 0.01551 0.0246975 -0.000308347 -7.407 -21.0473 -62.3536 0.0025 
262 1 0.0127705 -0.0260514 0.00651473 0 0 0 0.317755 0.564182 -0.0969398 0 0 -0.00160516 -20.1632 -25.8874 -77.2586 0.0025 
307 1 0.018324 -0.0271764 0.00636922 0 0 0 0.244729 -0.30934 -0.061277 0.0433967 -0.0238584 0.0708188 46.7845 -26.3577 -71.1012 0.0025 
132 1 0.0329458 -0.0272209 0.00578294 0 0 0 -0.298062 0.372871 0.0121543 0 0 -0.00160516 -117.336 -66.4256 -51.7348 0.0025 
296 1 -0.0398208 -0.0251915 0.00664956 0 0 0 0.771417 0.37847 0.0497299 0 0 -0.00160516 -21.5961 -38.8773 -38.9021 0.0025 
195 1 -0.0234807 -0.0240931 0.00465937 0 0 0 0.185888 -0.126622 -0.190918 -0.0403496 0.0257536 0.0110954 4.49246 -18.5256 17.6422 0.0025 
76 1 0.00487264 -0.0243533 0.00582768 0 0 0 -0.544793 -0.377151 -0.0144328 0 0 -0.00160516 -22.2058 -23.6739 2.31732 0.0025 
13 1 0.0231846 -0.0227749 0.00283544 0 0 0 -0.0382931 -0.116478 -0.410985 0 0 -0.00160516 136.474 -35.0562 5.94554 0.0025 
231 1 -0.0437403 -0.0169605 0.00468618 0 0 0 -0.0135295 0.38046 -0.23432 0 0 -0.00160516 -47.8383 12.0914 -72.6997 0.0025 
15 1 -0.0224359 -0.0185718 0.00272272 0 0 0 0.201955 0.0330594 0.59126 0 0 -0.00160516 -7.16084 111.771 -22.8499 0.0025 
293 1 -0.013157 -0.0189606 0.00574168 0 0 0 -0.103995 -0.429705 0.311712 0 0 -0.00160516 4.77141 -28.088 -87.7735 0.0025 
52 1 -0.00115742 -0.0193493 0.00663523 0 0 0 -0.576166 0.3793 -0.563598 0.0144016 0.00123624 0.00202221 120.599 -34.0062 -30.0214 0.0025 
75 1 0.0127483 -0.0214888 0.00360509 0 0 0 -0.109254 -0.154735 -0.0185253 -0.16438 -0.0761592 0.0261698 44.2158 -0.944339 -13.495 0.0025 
149 1 0.026777 -0.0172748 0.00556918 0 0 0 0.338408 0.269999 0.027911 -0.0733983 -0.159137 -0.13268 -44.3282 8.88565 60.4278 0.0025 
386 1 0.0377804 -0.019396 0.00311836 0 0 0 0.37547 0.271829 0.864867 0 0 -0.00160516 -70.2564 134.574 10.6245 0.0025 
439 1 -0.0396035 -0.0165892 0.00796573 0 0 0 -0.154161 0.104734 0.487297 0 0 -0.00160516 104.982 -2.83747 2.95316 0.0025 
121 1 -0.0289158 -0.0164048 0.00369174 0 0 0 -0.192435 0.0568054 -0.279811 0.00915365 -0.0295434 -0.0311666 77.9971 11.2155 -11.1646 0.0025 
159 1 0.0217673 -0.0178032 0.00379202 0 0 0 -0.0651097 0.0163882 -0.0332256 0 0 -0.00160516 -74.9384 23.1656 48.0817 0.0025 
313 1 0.0322732 -0.0184894 0.00781273 0 0 0 -0.106111 -0.42965 -0.160535 0 0 -0.00160516 -88.0995 49.1933 -13.9005 0.0025 
196 1 -0.044187 -0.0118928 0.00238302 0 0 0 -0.0189113 0.0227379 -0.233085 -0.00852115 -0.0104563 0.268168 24.0778 -34.9182 -26.4029 0.0025 
226 1 -0.00633363 -0.0120164 0.00368508 0 0 0 -0.308514 0.216892 -0.24815 0.0684024 -0.0717231 0.0159057 40.5473 21.2642 -54.3292 0.0025 
233 1 0.0148424 -0.0100182 0.00561098 0 0 0 -0.173239 0.401762 -0.360877 0 0 -0.00160516 34.9236 -27.7517 -12.028 0.0025 
20 1 0.0298966 -0.0124885 0.00345963 0 0 0 0.416278 0.150968 -0.616594 0 0 -0.00160516 13.5184 71.7684 -20.0665 0.0025 
426 1 0.0348693 -0.0117929 0.00261376 0 0 0 0.10782 -0.0937565 0.68742 0 0 -0.00160516 40.5522 50.1221 -39.9112 0.0025 
136 1 -0.0409452 -0.00761359 0.00786743 0 0 0 0.137545 0.0168388 0.309318 0.0739495 0.0388134 -0.251266 82.9184 -65.0862 20.7824 0.0025 
238 1 -0.0367275 -0.00918682 0.00340837 0 0 0 -0.337993 -0.196145 -0.106614 0 0 -0.00160516 59.489 70.1937 -24.021 0.0025 
449 1 -0.0257505 -0.0105883 0.00334345 0 0 0 -0.676237 0.0430881 -0.581513 0 0 -0.00160516 -24.3889 -78.0589 49.9228 0.0025 
38 1 0.00711388 -0.00852972 0.00569465 0 0 0 -0.393345 0.066944 -0.400878 0 0 -0.00160516 -28.2217 14.0364 -76.1514 0.0025 
338 1 0.020562 -0.00920618 0.00508509 0 0 0 -0.21619 0.120086 0.0218762 0 0 -0.00160516 25.4456 -37.9841 -56.9062 0.0025 
367 1 -0.027945 -0.00537812 0.00531461 0 0 0 -0.0810001 0.195162 0.170501 -0.021197 0.0482967 -0.0710594 12.6538 42.0332 -3.68625 0.0025 
61 1 -0.00582766 -0.00493411 0.00395115 0 0 0 -0.0220513 -0.227604 -0.359234 0 0 -0.00160516 -59.2566 -34.7031 11.2221 0.0025 
237 1 0.0310172 -0.00657684 0.00544218 0 0 0 -0.0909552 -0.0841572 -0.340658 -0.000340392 -0.00109965 0.00140953 -37.9365 115.131 73.5308 0.0025 
1027 1 0.038857 -0.00435096 0.00711441 0 0 0 0.146205 0.20288 -0.187403 0.050784 -0.0460089 -0.014893 30.5248 -34.7938 -42.1011 0.0025 
328 1 -0.0155344 -0.00373195 0.00670663 0 0 0 0.323841 0.117938 -0.385318 0.0615388 -0.0512796 0.129979 -5.72262 -6.41719 -21.3264 0.0025 
202 1 0.00599838 -0.00318891 0.0033825 0 0 0 -0.136659 0.0669422 -0.429575 0.0111253 0.00014987 0.00079408 -15.3164 4.80161 -27.0665 0.0025 
1179 1 0.017181 -0.00207508 0.00666317 0 0 0 -0.20138 0.0381207 0.0616167 -0.00668806 0.00102976 0.00989302 58.0568 44.2555 -65.8096 0.0025 
368 1 0.029873 -0.000599036 0.00392007 0 0 0 0.343234 -0.154954 -0.456264 0 0 -0.00160516 -11.4743 72.5134 14.0338 0.0025 
352 1 -0.0124199 -0.0430223 0.00833149 0 0 0 0.666269 0.643476 -0.14683 0 0 -0.00160516 -31.4805 33.5034 45.2858 0.0025 
189 1 0.00113557 -0.0465466 0.00793976 0 0 0 0.0481256 -0.99158 -0.426888 0 0 -0.00160516 17.7146 -35.7298 99.8101 0.0025 
4 1 0.00561908 -0.0434355 0.00867081 0 0 0 0.272045 -0.16798 0.221024 -0.0880174 -0.0581434 0.0434649 98.8955 42.6269 -30.725 0.0025 
243 1 0.0164885 -0.0442256 0.00766286 0 0 0 -0.282026 0.189435 -0.238277 0 0 -0.00160516 -1.23261 -38.0541 115.093 0.0025 
271 1 -0.0224378 -0.0419841 0.0110264 0 0 0 -0.0880202 0.571862 0.255582 0.106941 0.181917 -0.00863345 -19.5175 -51.9756 -1.09735 0.0025 
257 1 0.00142049 -0.0403484 0.00777186 0 0 0 0.339054 -0.332263 -0.531697 0 0 -0.00160516 41.4903 7.01879 24.3068 0.0025 
302 1 0.0210474 -0.0422092 0.00841574 0 0 0 -0.0202244 -0.369716 -0.14963 0 0 -0.00160516 4.57693 8.63986 45.1831 0.0025 
82 1 -0.0262067 -0.0375997 0.009216 0 0 0 0.300574 -0.153174 -0.0186548 -0.0165767 -0.0865044 0.0339623 -1.72232 21.6689 -65.6781 0.0025 
411 1 -0.0190453 -0.0388549 0.00842756 0 0 0 0.0328966 -0.456879 -0.175388 0 0 -0.00160516 -78.6661 -11.2028 13.1564 0.0025 
28 1 -0.00698646 -0.0410313 0.00999117 0 0 0 -0.406375 -0.329392 -0.00216269 0.00613335 0.132481 -0.0304592 64.7796 -11.3572 -30.0414 0.0025 
186 1 0.0256995 -0.0366767 0.00910092 0 0 0 -0.0942544 0.246072 0.0607218 0 0 -0.00160516 38.1017 -30.0453 7.13372 0.0025 
280 1 0.0307257 -0.0360736 0.0102181 0 0 0 -0.456055 0.571026 -0.354025 0 0 -0.00160516 -92.3646 -27.6583 19.0078 0.0025 
102 1 -0.0314057 -0.0353084 0.00959535 0 0 0 0.42394 -0.379142 -0.0787508 0 0 -0.00160516 -16.8596 13.2284 -24.4214 0.0025 
266 1 -0.0242282 -0.0330855 0.00923584 0 0 0 0.331133 0.0650816 -0.0879246 -0.138501 0.0687217 0.047474 8.70665 15.4736 64.4637 0.0025 
16 1 -0.0195485 -0.0329528 0.00783468 0 0 0 0.0602979 -0.279481 -0.683868 0.173773 0.0101534 -0.0460639 44.8548 -71.0376 19.8708 0.0025 
417 1 -0.00944731 -0.0343436 0.0106583 0 0 0 -0.271661 -0.296257 0.0730802 0.337206 -0.257322 0.0445443 -25.4902 -71.9576 46.2736 0.0025 
70 1 0.000646517 -0.0354796 0.0064443 0 0 0 0.115433 -0.430371 0.307627 0.00139197 -0.003541 0.00321408 -20.1837 87.0412 -6.26478 0.0025 
53 1 0.0171041 -0.0355033 0.00920258 0 0 0 -0.0436046 -0.579441 -0.0805364 0 0 -0.00160516 54.3694 -51.4356 -15.0779 0.0025 
260 1 -0.0364409 -0.027811 0.0102603 0 0 0 -0.0515717 0.315012 -0.0724858 0 0 -0.00160516 -46.6104 29.2554 -10.0346 0.0025 
8 1 -0.0131068 -0.0312716 0.0102292 0 0 0 -0.128707 -0.00122713 0.163373 -0.337206 0.257322 -0.0477546 44.4504 1.71452 28.0281 0.0025 
291 1 -0.00408853 -0.0305786 0.00810842 0 0 0 0.119112 -0.0503046 0.215687 0 0 -0.00160516 -108.592 68.0127 -61.8347 0.0025 
115 1 0.00225556 -0.0302366 0.00913612 0 0 0 -0.440646 0.167019 0.0117225 -0.0123534 0.000872894 0.0126622 -60.367 -3.26841 -63.8986 0.0025 
373 1 0.0105063 -0.0326333 0.00896967 0 0 0 -0.352848 -0.64262 0.0793195 0 0 -0.00160516 -44.719 4.72186 -73.1717 0.0025 
412 1 0.0282045 -0.03112 0.0104567 0 0 0 -0.0480986 0.173975 0.276941 -0.0899655 -0.0717443 -0.0131503 -13.5398 -43.3116 -38.3818 0.0025 
223 1 0.0366278 -0.0303957 0.00803906 0 0 0 0.547578 0.0349798 -0.669426 -0.184769 0.103376 0.133433 -32.4219 -40.5234 -42.6759 0.0025 
394 1 -0.0220343 -0.0252558 0.00980709 0 0 0 0.295729 0.045449 0.180409 -0.0413605 0.0281091 0.00872235 -28.1421 -17.1166 -79.6161 0.0025 
182 1 -0.0181004 -0.0280018 0.00857128 0 0 0 -0.320597 0.166047 -0.0803624 -0.002311 -0.0471981 -0.041977 107.475 4.22331 -11.1805 0.0025 
165 1 -0.00856621 -0.0270178 0.00900133 0 0 0 -0.490547 -0.141383 0.101378 0 0 -0.00160516 42.146 98.229 25.2812 0.0025 
164 1 -0.00297913 -0.0255495 0.00763319 0 0 0 -0.277674 -0.247994 0.822332 0 0 -0.00160516 30.3202 -9.31902 -0.89879 0.0025 
320 1 0.00743229 -0.0261732 0.00978346 0 0 0 -0.38472 0.311299 -0.172089 0 0 -0.00160516 -21.1798 56.4911 -7.50761 0.0025 
11 1 -0.0308954 -0.02369 0.00773243 0 0 0 -0.175041 -0.392817 -0.189302 0 0 -0.00160516 -25.8336 28.5688 -54.2297 0.0025 
374 1 -0.0114976 -0.0228888 0.00946718 0 0 0 0.236868 -0.187334 -0.24932 0.111633 0.129904 -0.0778425 84.7314 -20.2413 -33.1702 0.0025 
424 1 0.0167809 -0.0222159 0.00673477 0 0 0 0.029321 -0.127144 -0.246266 -0.0180792 -0.158747 0.22395 -72.1229 -34.5141 45.007 0.0025 
215 1 0.0233252 -0.0266817 0.00853204 0 0 0 0.424902 -0.751803 -0.0713897 0 0 -0.00160516 -5.94196 19.958 -15.0547 0.0025 
285 1 0.0296189 -0.0238655 0.00811439 0 0 0 0.0843621 0.168681 -0.775853 0 0 -0.00160516 -15.8126 -65.8739 20.7281 0.0025 
44 1 0.0351701 -0.0226523 0.00847541 0 0 0 0.242448 -0.574123 -0.350396 0 0 -0.00160516 -4.58769 -84.6578 79.0722 0.0025 
303 1 0.0399466 -0.0258592 0.0103371 0 0 0 0.204715 -0.832944 0.147523 -0.146006 0.104889 -0.0037919 60.5205 -18.0405 70.6505 0.0025 
187 1 -0.025755 -0.0213572 0.00869045 0 0 0 0.171209 -0.339426 0.184425 0.0609572 0.0704546 -0.10945 71.6552 -0.41295 -40.4356 0.0025 
163 1 -0.0170116 -0.0225865 0.00795854 0 0 0 -0.163459 0.0113915 0.0754188 -0.00603107 -0.00237264 0.043371 58.4541 100.524 50.5365 0.0025 
334 1 -0.00597613 -0.0202874 0.00620356 0 0 0 -0.141895 -0.280118 -0.501965 -0.0549209 -0.0936289 0.0868252 42.392 18.5211 -29.4564 0.0025 
383 1 0.00371691 -0.0187921 0.00711818 0 0 0 0.128639 0.15173 -0.420814 0.0779862 0.0120375 0.00369929 27.149 17.3948 -87.5946 0.0025 
219 1 0.0104488 -0.0207772 0.00908093 0 0 0 0.181708 -0.30559 0.317231 0 0 -0.00160516 40.4223 60.8274 -69.9025 0.0025 
304 1 0.0245906 -0.0210829 0.00841874 0 0 0 -0.0883426 -0.00816987 -0.715424 0 0 -0.00160516 25.6959 10.0682 6.58948 0.0025 
282 1 0.0426328 -0.0210186 0.00738865 0 0 0 -0.679836 -0.0263825 -0.183038 -0.026359 0.0122823 -0.000299738 -21.7757 -54.2517 139.143 0.0025 
211 1 -0.0346799 -0.0154909 0.00796369 0 0 0 -0.350972 -0.195125 -0.169559 0.0455217 -0.0658745 -0.0347568 -0.94461 -26.603 -52.6199 0.0025 
382 1 -0.0288809 -0.0172047 0.0105913 0 0 0 -0.336963 0.137077 0.367971 0 0 -0.00160516 30.5394 12.3276 -12.0577 0.0025 
9 1 -0.0238864 -0.016062 0.00793696 0 0 0 0.414737 0.0706167 -0.664389 -0.0681065 -0.221306 -0.0205937 -22.6517 33.3262 3.50979 0.0025 
23 1 -0.00901074 -0.0147157 0.00739693 0 0 0 0.217948 0.0309996 -0.102596 -0.00216958 -0.00798976 -0.00929576 -5.4105 20.2638 29.2017 0.0025 
273 1 0.00958485 -0.0161465 0.0065624 0 0 0 0.0701479 -0.364361 0.183477 0 0 -0.00160516 -1.982 -77.3466 4.6356 0.0025 
140 1 0.0186531 -0.0155455 0.00855648 0 0 0 -0.203628 -0.136679 0.0583832 0 0 -0.00160516 9.35725 70.4848 2.10118 0.0025 
322 1 0.0437036 -0.0139536 0.00872099 0 0 0 0.344448 0.299551 0.252493 0.0100359 0.0886084 -0.103768 56.7809 -124.879 -153.353 0.0025 
270 1 -0.0297415 -0.0129947 0.00719408 0 0 0 0.356537 -0.0960452 -0.235671 -0.00915365 0.0295434 0.0279563 -58.9896 58.7033 -32.8692 0.0025 
36 1 -0.0226784 -0.0113721 0.00842609 0 0 0 -0.159466 -0.301155 -0.547581 0.0681065 0.221306 0.0173834 23.7476 37.8184 -17.1767 0.0025 
436 1 -0.0183661 -0.013933 0.00844794 0 0 0 -0.350051 -0.458885 -0.233445 0 0 -0.00160516 68.3091 47.1279 7.75903 0.0025 
442 1 -0.000234766 -0.0131932 0.00683343 0 0 0 -0.0586805 0.0239024 -0.167366 -0.000752712 -0.00290082 -0.00246352 -7.13804 -5.66856 -16.9508 0.0025 
337 1 0.0282949 -0.0135696 0.00834797 0 0 0 -0.32606 0.218363 -0.699853 0.0733983 0.159137 0.12947 -16.9831 -69.3525 15.3314 0.0025 
450 1 0.0381748 -0.0132897 0.00726691 0 0 0 0.117682 -0.0324389 -0.256531 0 0 -0.00160516 62.5623 -90.5407 26.131 0.0025 
105 1 -0.0458425 -0.0112834 0.00805778 0 0 0 0.321261 -0.662606 0.0620489 0 0 -0.00160516 48.5453 -102.43 -62.8657 0.0025 
312 1 -0.037242 -0.0118446 0.0100724 0 0 0 -0.237705 -0.367061 0.222039 -0.0455217 0.0658745 0.0315465 -18.7391 22.7727 27.2403 0.0025 
27 1 -0.0268548 -0.00830259 0.00913464 0 0 0 -0.143207 0.211727 -0.467727 0.0338731 0.0967571 -0.135908 64.2053 9.98645 25.7316 0.0025 
157 1 -0.0165824 -0.00904969 0.00725527 0 0 0 -0.377242 -0.080156 -0.0870121 0 0 -0.00160516 59.6584 -24.1597 -45.2971 0.0025 
326 1 -0.011582 -0.00991601 0.00749486 0 0 0 -0.580979 -0.165693 -0.202366 0 0 -0.00160516 28.2596 -10.3428 3.46885 0.0025 
65 1 0.000745928 -0.00853116 0.00831474 0 0 0 -0.207517 0.296606 0.10051 0.000752712 0.00290082 -0.000746794 0.467914 76.8782 -78.9123 0.0025 
166 1 0.0243172 -0.00933098 0.010037 0 0 0 -0.111641 -0.256796 -0.40008 -0.000107247 -0.000233205 -0.0017703 59.0264 -25.0932 -21.3853 0.0025 
284 1 0.0306845 -0.0081375 0.010176 0 0 0 0.213332 -0.231628 0.460669 -0.0547935 -0.056711 -0.231024 -52.9101 56.0839 31.8832 0.0025 
290 1 0.0361627 -0.00865262 0.00658109 0 0 0 -0.375261 -0.275386 -0.530807 0 0 -0.00160516 -11.6035 -20.0466 1.12133 0.0025 
47 1 0.0418008 -0.00891375 0.00841644 0 0 0 0.349287 -0.0885556 0.202719 0 0 -0.00160516 4.06031 -44.3068 25.4492 0.0025 
246 1 -0.043345 -0.00321133 0.00931338 0 0 0 -0.178639 0.120278 0.146611 0 0 -0.00160516 -19.3228 34.6832 14.5492 0.0025 
155 1 -0.0369547 -0.0043258 0.00565997 0 0 0 0.0163653 -0.159046 -0.0115244 -0.175536 -0.348596 0.528139 -59.878 59.6767 33.9922 0.0025 
49 1 -0.0224308 -0.00624072 0.00685862 0 0 0 -0.060037 0.176845 0.0156437 0 0 -0.00160516 -45.3543 -49.569 22.1938 0.0025 
278 1 -0.00830009 -0.00604874 0.00963527 0 0 0 -0.0456833 -0.0198206 -0.46937 0 0 -0.00160516 0.998349 -3.70479 5.1958 0.0025 
21 1 0.00397962 -0.00469911 0.00890468 0 0 0 -0.679467 0.290198 0.27073 0 0 -0.00160516 -32.4689 48.8297 -56.1632 0.0025 
191 1 0.0125125 -0.00438473 0.00697364 0 0 0 0.298133 0.0933192 0.00149418 0 0 -0.00160516 -30.1598 -1.14902 -13.0669 0.0025 
971 1 0.0165378 -0.00660178 0.00938342 0 0 0 -0.158804 -0.44568 -0.223495 0 0 -0.00160516 -36.1735 -63.95 -103.244 0.0025 
254 1 0.026487 -0.00489757 0.00760805 0 0 0 0.091021 0.0748574 0.113586 0 0 -0.00160516 -52.707 -23.2984 -34.9016 0.0025 
1100 1 0.0472443 -0.00494076 0.00868587 0 0 0 -0.0879746 0.232424 0.260342 -0.00652443 -0.0522133 -0.0490775 -53.9312 -37.8153 29.6733 0.0025 
42 1 -0.032619 -0.00200115 0.00683595 0 0 0 -0.232893 0.147548 0.417842 0 0 -0.00160516 58.2085 -31.4191 16.1759 0.0025 
94 1 -0.0260656 -0.00282525 0.0104913 0 0 0 0.188895 -0.315633 0.0741589 0 0 -0.00160516 71.1345 2.58982 7.96316 0.0025 
1337 1 -0.0215931 -0.000554015 0.00781418 0 0 0 -0.0612867 -0.101665 -0.627631 0 0 -0.00160516 30.7504 49.0076 -18.1089 0.0025 
184 1 -0.00545523 -0.00126731 0.0084872 0 0 0 0.0654974 0.0180312 -0.287897 0 0 -0.00160516 54.0605 54.2717 20.2411 0.0025 
1021 1 -0.00137423 -0.00411048 0.00944208 0 0 0 -0.298425 -0.372289 -0.0226807 0 0 -0.00160516 10.9855 30.2436 -33.9852 0.0025 
287 1 0.00798943 -0.00138352 0.00823395 0 0 0 0.262658 -0.351415 -0.208406 0 0 -0.00160516 -13.0273 -42.1716 10.7772 0.0025 
198 1 0.0240095 -0.000152129 0.00705444 0 0 0 0.168763 -0.153374 -0.279096 0.0772074 -0.0507044 0.043161 11.7112 -18.7452 -12.4096 0.0025 
93 1 0.0304692 -0.00149974 0.00905802 0 0 0 -0.481454 -0.332277 0.252601 -0.491961 -0.0435631 0.078203 4.51569 19.8937 1.46481 0.0025 
393 1 0.035157 -0.0012599 0.00820474 0 0 0 0.382603 -0.548325 0.195329 0.441177 0.089572 -0.0681255 -27.3729 -45.687 -143.428 0.0025 
99 1 0.0476 -0.00144399 0.0121579 0 0 0 -0.2832 -0.00780918 0.139847 -0.0361363 0.0574171 -0.122231 1.71238 57.0428 11.3705 0.0025 
73 1 -0.00702558 -0.0458555 0.0108746 0 0 0 -0.337979 -0.523305 -0.0750242 -0.00613335 -0.132481 0.0272489 -83.8466 26.7043 -15.1757 0.0025 
247 1 0.0114958 -0.0452851 0.0150234 0 0 0 -0.221889 0.0218142 0.481514 0 0 -0.00160516 -32.9527 5.10601 16.0915 0.0025 
88 1 -0.0164702 -0.0424203 0.0113337 0 0 0 -0.532669 -0.89127 -0.553367 0 0 -0.00160516 8.38927 -71.4149 -31.565 0.0025 
427 1 -0.0106328 -0.0429616 0.0145321 0 0 0 0.177165 -0.106494 0.404961 0 0 -0.00160516 -33.8043 -68.7109 59.3402 0.0025 
416 1 -0.0021625 -0.0435528 0.0112429 0 0 0 -0.181211 -0.178828 -0.430496 0.0903585 -0.0460167 -0.0980407 -5.80481 -16.9036 12.3974 0.0025 
176 1 0.0122157 -0.0423104 0.0107402 0 0 0 -0.0816948 -0.30273 -0.300736 0 0 -0.00160516 46.7568 -11.3959 -29.1487 0.0025 
97 1 0.0210705 -0.0402149 0.0144936 0 0 0 0.250011 -0.178211 -0.0226806 0 0 -0.00160516 -35.4732 -33.6444 -30.0653 0.0025 
357 1 0.00828726 -0.038551 0.0132828 0 0 0 0.268513 -0.216134 0.256555 0 0 -0.00160516 -5.60288 36.789 -57.2919 0.0025 
204 1 -0.0336887 -0.0307101 0.0144138 0 0 0 0.410212 0.45851 0.235483 0 0 -0.00160516 -33.7882 52.281 -21.9204 0.0025 