ITEM: TIMESTEP
11200
ITEM: NUMBER OF ATOMS
1800
ITEM: BOX BOUNDS mm mm mm
-0.05 0.05
-0.05 0.05
0 0.15
ITEM: ATOMS id type x y z ix iy iz vx vy vz fx fy fz omegax omegay omegaz radius 
150 1 0.0037249 -0.0473692 0.00267883 0 0 0 -0.0143262 0.312345 -0.124816 -0.0206561 -0.0424764 0.00367267 -24.1225 -14.6374 -13.8671 0.0025 
241 1 0.0100806 -0.0465513 0.00263876 0 0 0 0.00887491 -0.0584872 0.410593 -0.0764851 0.281311 -0.0187585 17.1565 52.0205 -0.0156344 0.0025 
217 1 -0.0154275 -0.0447457 0.00328874 0 0 0 -0.2391 -0.388121 -0.143282 0 0 -0.00160516 34.6295 54.3337 -2.78021 0.0025 
410 1 -0.0106282 -0.046264 0.00274318 0 0 0 0.128828 0.0864187 0.0775291 0.00662249 -0.0787859 0.00181882 -2.22657 -44.8597 16.5239 0.0025 
28 1 -0.000933272 -0.0450904 0.00240858 0 0 0 0.259478 -0.116556 0.285305 -0.00882557 0.000524624 0.175218 41.7118 7.84034 -43.4864 0.0025 
279 1 0.0148609 -0.0452242 0.00308943 0 0 0 0.342445 -0.0987957 -0.0589227 -0.0705655 0.212272 0.00427642 34.7007 13.1594 16.7609 0.0025 
409 1 0.0195926 -0.0432665 0.00363989 0 0 0 -0.0423933 -0.0612134 0.057028 0 0 -0.00160516 -43.9021 -36.9586 -9.98681 0.0025 
413 1 -0.0262771 -0.0393317 0.00302501 0 0 0 -0.110835 0.0445128 0.0583363 0.00732722 -0.00498974 -0.0123585 -44.5257 14.0134 9.54039 0.0025 
37 1 -0.0214639 -0.0424203 0.00274163 0 0 0 -0.00403664 -0.111194 -0.0464172 0.027297 0.0505308 0.000815414 -18.3731 -31.9024 -29.0279 0.0025 
103 1 -0.0171263 -0.039732 0.00273665 0 0 0 0.116264 -0.130485 -0.0717851 0 0 -0.00160516 12.8603 -28.4819 -16.4362 0.0025 
18 1 -0.0112795 -0.041381 0.00247452 0 0 0 -0.341308 0.107791 0.0476697 -0.0531027 0.106195 -0.138603 42.0019 -22.132 14.9008 0.0025 
218 1 -0.00632379 -0.0419067 0.00247718 0 0 0 -0.504794 -0.376326 -0.00633415 0.0118457 -0.000112718 0.0213325 43.4142 23.3733 -28.8434 0.0025 
85 1 -0.000769531 -0.0395545 0.00274092 0 0 0 -0.266049 0.0317168 -0.0307089 0 0 -0.00160516 2.81875 -0.760941 26.4953 0.0025 
141 1 0.00569277 -0.0428333 0.00242502 0 0 0 0.00604321 -0.0999327 0.0546032 0.0151182 0.0167311 0.127814 -2.79556 23.8845 19.0061 0.0025 
230 1 0.0105186 -0.0416012 0.00247437 0 0 0 0.227608 -0.023646 0.013974 -0.207885 -0.0620529 -0.338544 28.9821 0.838505 6.82647 0.0025 
101 1 0.0151887 -0.0402271 0.00253899 0 0 0 0.173879 -0.0131026 -0.048212 0.216071 0.0578525 0.0111118 -14.2761 15.3619 -19.8656 0.0025 
389 1 0.0240509 -0.0410823 0.00236831 0 0 0 0.0442103 -0.110011 -0.00833979 -0.0237494 0.0161842 0.100029 3.46655 32.2811 4.48012 0.0025 
95 1 -0.0216413 -0.0364278 0.00247628 0 0 0 0.201964 0.0152472 -0.189374 -0.00134637 8.02806e-05 0.02537 -17.2206 -104.88 -13.3993 0.0025 
438 1 -0.0128171 -0.03665 0.00286174 0 0 0 -0.0133373 -0.010829 -0.0886334 -0.0272437 -0.00306366 -0.0198496 -6.36444 29.6198 -32.3089 0.0025 
268 1 0.00567834 -0.0378734 0.00251956 0 0 0 0.161686 -0.224433 0.156518 -0.00992422 0.0356158 -0.00113734 48.3781 -36.5177 -12.4349 0.0025 
126 1 0.0105026 -0.0366189 0.0024761 0 0 0 0.166974 0.0130938 0.00111099 0.0124533 -0.0759863 0.024796 -9.37224 30.8183 12.5295 0.0025 
213 1 0.019801 -0.038073 0.00243437 0 0 0 0.307123 -0.0607266 0.52468 -0.0238351 0.0132817 0.0679424 13.6392 92.2936 9.2616 0.0025 
134 1 0.0247144 -0.0362319 0.00282522 0 0 0 0.00523986 -0.152289 -0.118296 0.0869505 -0.164276 0.0441862 11.5008 -38.7404 9.15711 0.0025 
309 1 0.0299438 -0.0361261 0.00305001 0 0 0 0.0630801 -0.0301913 0.179917 0 0 -0.00160516 7.35228 -47.1966 21.2082 0.0025 
10 1 -0.0340236 -0.0332203 0.00249833 0 0 0 -0.130896 -0.457772 -0.0619716 0.0588989 0.0628323 -0.00270462 -58.7454 61.4851 17.1039 0.0025 
244 1 -0.0293127 -0.0350219 0.00251761 0 0 0 -0.0384762 -0.0313056 -0.186683 0 0 -0.00160516 -30.7047 -26.0895 -65.0577 0.0025 
81 1 -0.0168054 -0.0337359 0.00240896 0 0 0 0.0780883 0.290972 -0.00460894 -0.0375022 0.0157634 0.175353 -44.8867 -89.4998 -9.73646 0.0025 
295 1 -0.00462385 -0.0349427 0.00255233 0 0 0 -0.156608 -0.0629867 -0.0553519 0.00139111 -0.0401267 -0.00714709 32.8974 15.5809 -2.65028 0.0025 
68 1 9.18242e-05 -0.0324607 0.00280289 0 0 0 0.308032 -0.0710043 -0.404725 -0.0257829 -0.0415293 0.00480546 -18.1846 -41.4038 16.3684 0.0025 
234 1 0.0154816 -0.0346347 0.00249193 0 0 0 0.0977768 0.42361 0.318609 -3.41048e-05 -4.72048e-05 -0.000440437 -103.731 -8.50856 -15.5019 0.0025 
266 1 -0.0301364 -0.0293485 0.00259912 0 0 0 -0.109513 0.0476318 -0.14986 0.0258511 -0.0223367 -0.0594089 34.6657 -21.0037 26.8193 0.0025 
113 1 -0.0252876 -0.0314035 0.00243123 0 0 0 -0.138018 -0.189034 0.2746 0.00507762 0.00257919 0.112297 53.4536 -10.1475 -36.0054 0.0025 
291 1 -0.00902614 -0.0323178 0.00243353 0 0 0 -0.116935 -0.549605 0.0125318 -0.148767 -0.0761325 0.0786817 73.0801 -2.44541 -46.8065 0.0025 
30 1 0.00469129 -0.0305967 0.00245141 0 0 0 -0.102069 0.123079 0.072401 0.114524 -0.0750688 0.0643336 32.029 34.184 38.6518 0.0025 
220 1 0.0099848 -0.0317184 0.00253652 0 0 0 -0.105078 0.121979 0.136788 -0.0055879 0.0884013 -0.00289436 -7.21745 25.2982 -10.7086 0.0025 
440 1 0.0186341 -0.0294034 0.00252822 0 0 0 -0.124167 -0.205895 -0.0436489 0 0 -0.00160516 18.1876 39.0193 -13.6328 0.0025 
13 1 0.0237333 -0.0315079 0.00237154 0 0 0 0.308414 -0.282521 -0.0499353 -0.126702 0.238656 0.160809 -20.4397 -1.21964 6.71497 0.0025 
66 1 0.0286045 -0.0306027 0.00262423 0 0 0 -0.171445 0.118745 0.043245 0.0395079 0.00533457 0.000145583 -21.6993 -32.2898 21.0588 0.0025 
205 1 0.0376709 -0.0291317 0.00252449 0 0 0 0.214407 -0.146509 0.109998 -0.226488 0.171115 -0.0154341 28.6718 28.032 -4.45292 0.0025 
296 1 -0.0401933 -0.0254176 0.00266819 0 0 0 0.250365 -0.0462832 0.01375 0.0539825 -0.0817278 -0.0665872 -2.13076 -9.3714 11.0701 0.0025 
306 1 -0.0356511 -0.0274882 0.00243446 0 0 0 0.246079 -0.232927 -0.0740431 -0.0890499 0.0283706 0.0269069 75.5452 38.8078 -33.733 0.0025 
195 1 -0.0273832 -0.0252256 0.00243165 0 0 0 -0.175605 0.194865 0.121699 0.0560761 -0.1045 0.116397 -1.05384 -5.80321 9.77457 0.0025 
434 1 -0.0179913 -0.0280676 0.00246601 0 0 0 -0.386947 -0.113908 -0.116454 -0.0568447 0.0449071 -0.106376 4.78029 24.583 57.8478 0.0025 
265 1 -0.0128792 -0.0284565 0.00288538 0 0 0 0.324145 -0.1316 -0.210084 0 0 -0.00160516 4.29395 65.9172 19.7562 0.0025 
286 1 -0.00836732 -0.0258243 0.00236284 0 0 0 0.313612 -0.229203 0.164927 -0.0147967 0.00754039 0.330538 63.7726 69.1121 5.28866 0.0025 
225 1 0.000825147 -0.0275647 0.00244883 0 0 0 -0.0505882 -0.161255 0.16017 -0.0673881 0.101944 0.0439527 13.4192 -10.0523 -11.3885 0.0025 
32 1 0.00681659 -0.0259029 0.00251534 0 0 0 0.594047 -0.100367 -0.0636811 0 0 -0.00160516 63.8682 -17.83 -22.488 0.0025 
346 1 0.0117943 -0.027044 0.00297604 0 0 0 0.294252 0.0948821 0.227272 -0.0262703 -0.0125115 -0.00345051 92.7017 8.88822 -37.3814 0.0025 
424 1 0.0162458 -0.0248373 0.00305512 0 0 0 -0.124151 0.103974 -0.385295 -0.0470955 -0.0361982 0.0150807 -16.1376 -31.1265 17.8205 0.0025 
304 1 0.025057 -0.0263841 0.00229587 0 0 0 0.130411 0.340612 -0.0380187 0.0743044 -0.158507 0.50188 17.3597 -11.3952 17.4613 0.0025 
285 1 0.0328779 -0.0276247 0.00269666 0 0 0 -0.0375175 -0.285001 0.475167 -0.00205076 -0.0283746 -0.0503286 13.8782 39.5164 9.10002 0.0025 
404 1 -0.037277 -0.0214322 0.00251764 0 0 0 -0.136667 -0.202897 -0.00864362 0.0450235 0.0554877 -0.00366321 13.2124 41.9229 -71.4609 0.0025 
365 1 -0.0323212 -0.0238134 0.00235671 0 0 0 -0.383503 -0.13775 -0.10031 0.0454821 0.0302243 0.351923 -16.3771 56.786 2.87141 0.0025 
15 1 -0.0236707 -0.0218614 0.00270557 0 0 0 0.172207 0.0461568 -0.32365 -0.0714489 -0.0326535 -0.101465 -20.9911 -45.58 -31.8771 0.0025 
421 1 -0.0180199 -0.022979 0.00254768 0 0 0 -0.0274389 -0.124819 0.359603 -0.0389999 0.0691339 -0.214946 59.0836 -4.49608 33.2094 0.0025 
334 1 -0.00411163 -0.0220639 0.00246619 0 0 0 0.0038256 -0.105875 0.129558 -0.0602197 -0.0260785 0.0305747 5.17788 -8.50292 -37.0587 0.0025 
87 1 0.000807115 -0.0224535 0.00254937 0 0 0 0.214728 0.0671653 0.0382705 0.0781549 -0.0177143 0.000848165 29.3695 8.08093 15.2263 0.0025 
75 1 0.011629 -0.021652 0.0036507 0 0 0 -0.00936108 -0.0377914 -0.427294 0.0265024 -0.0915508 -0.103334 -56.5533 15.1409 -45.1328 0.0025 
307 1 0.0209963 -0.0235925 0.00253956 0 0 0 -0.0196235 0.135052 0.0718125 -0.0963023 -0.0406292 -0.00822081 -13.8733 7.19336 -38.517 0.0025 
149 1 0.0285659 -0.0221946 0.002517 0 0 0 0.159206 0.101901 0.565522 0.0584635 -0.0308512 -0.00490581 -39.8372 4.64366 36.5806 0.0025 
44 1 0.0405308 -0.0248264 0.00332714 0 0 0 -0.141717 0.244017 -0.14308 0.097951 0.0177187 -0.0631239 78.4106 -1.2021 -30.0537 0.0025 
58 1 -0.0426105 -0.0210938 0.00255025 0 0 0 0.0756106 0.0720667 0.0825553 0.0381147 0.0648889 -0.0057137 29.4467 4.42966 -4.24197 0.0025 
187 1 -0.028537 -0.020457 0.00248849 0 0 0 -0.205708 0.203385 0.359398 -0.0439871 0.0858183 -0.192818 5.28044 -3.30269 7.30818 0.0025 
380 1 -0.0202663 -0.0182606 0.00243397 0 0 0 -0.0103876 0.187267 0.0197509 -0.12665 -0.0509435 -0.182929 -37.1661 3.27848 -26.7842 0.0025 
293 1 -0.0147933 -0.0182832 0.00246952 0 0 0 0.121525 0.14928 -0.170419 -0.188427 0.0797188 0.0144603 25.829 -82.4789 -58.8367 0.0025 
433 1 -0.0103017 -0.0201586 0.0024343 0 0 0 0.150852 0.0446974 0.0951778 0.0694035 -0.00748789 -0.0812512 -2.65162 -29.4824 36.8417 0.0025 
52 1 -0.00122366 -0.0179039 0.00257458 0 0 0 -0.185453 0.176067 0.190593 0.141246 -0.00901743 -0.0208472 36.1296 4.67773 55.0001 0.0025 
273 1 0.00785212 -0.0186652 0.00257221 0 0 0 -0.19912 0.0329523 0.132931 -0.0628815 -0.0475611 -0.0232294 27.5312 11.5229 40.17 0.0025 
366 1 0.0169965 -0.0199444 0.002702 0 0 0 -0.123991 0.318173 0.00388607 0.00223416 0.0335508 -0.0130946 -31.4793 -40.4472 6.54791 0.0025 
159 1 0.0242009 -0.0198836 0.00251675 0 0 0 -0.269054 0.117123 0.0595901 0.00686061 0.11844 -0.067621 26.2296 25.0669 48.464 0.0025 
448 1 0.0386535 -0.0201077 0.00301516 0 0 0 0.0787439 -0.278886 -0.250251 -0.00564856 -0.0188922 0.00176812 -39.461 10.7102 4.31902 0.0025 
339 1 0.0437167 -0.0186028 0.00247489 0 0 0 0.106147 -0.0316181 -0.00915937 0.0464897 -0.0406655 0.0287642 -81.2023 11.81 -28.1019 0.0025 
9 1 -0.0333739 -0.0178296 0.00245184 0 0 0 0.13638 -0.0853227 -0.593689 -0.0614747 -0.0465827 0.0752706 -23.9728 -5.05555 10.6327 0.0025 
445 1 -0.0295923 -0.0146583 0.00260162 0 0 0 -0.0236346 -0.08253 0.0144552 0.0572491 0.047111 -0.00299548 -48.1584 -61.9458 -17.1564 0.0025 
6 1 -0.0250417 -0.0170002 0.00260497 0 0 0 -0.08566 0.0229704 -0.490276 -0.00235772 0.0934222 -0.0156778 -10.2205 -22.0597 49.9388 0.0025 
158 1 -0.0109583 -0.0149434 0.00247547 0 0 0 -0.112854 -0.438741 -0.20982 0.00774782 -0.018054 -0.00289786 -54.7958 29.7649 -33.5182 0.0025 
40 1 -0.00607356 -0.0175721 0.0032126 0 0 0 0.203087 -0.0706304 0.171808 -0.140265 0.119655 -0.0267461 8.08917 11.0685 -47.3543 0.0025 
405 1 0.0036897 -0.0156254 0.00247058 0 0 0 -0.0468935 0.0549991 -0.235174 0.00405467 0.0032921 -0.0194417 14.8199 -4.76305 0.254524 0.0025 
379 1 0.0124706 -0.0167082 0.00254232 0 0 0 0.131143 -0.162605 -0.159638 -0.00349994 -0.0237197 -0.0158377 -5.25774 -41.6575 -1.11378 0.0025 
142 1 0.0196395 -0.0151444 0.00245311 0 0 0 0.0439725 0.050798 0.297637 -0.0105366 -0.0266101 0.0524846 -44.7308 8.12325 -41.5637 0.0025 
20 1 0.0296906 -0.0163354 0.00241268 0 0 0 -0.0985392 -0.208632 0.00539066 0.0015458 0.00838518 0.168924 -9.43509 -22.7176 -49.5134 0.0025 
386 1 0.0399942 -0.0153596 0.00241111 0 0 0 0.0102462 0.171914 -0.0694842 -0.0472897 0.0627664 0.167559 -41.6433 17.0357 14.3061 0.0025 
74 1 -0.0391141 -0.0138493 0.00248115 0 0 0 0.328825 -0.165259 -0.139768 0.00165235 0.138891 -0.0841714 -7.29537 22.0218 1.44518 0.0025 
449 1 -0.0341653 -0.012528 0.00232873 0 0 0 0.245121 0.0689651 -0.101238 -0.0224812 -0.00705279 0.469626 10.6884 -23.6125 -21.7375 0.0025 
331 1 -0.0234673 -0.012172 0.00246903 0 0 0 -0.215718 0.322045 -0.358354 -0.0819716 -0.0525811 -0.147278 2.39191 28.4228 -25.089 0.0025 
226 1 -0.00538934 -0.0126563 0.00240879 0 0 0 0.0144783 -0.0201807 -0.00836446 -0.139017 0.111844 -0.139621 38.4277 48.7519 -35.7131 0.0025 
22 1 -0.000297795 -0.0109971 0.0025334 0 0 0 0.278841 -0.230845 0.143724 0.120543 -0.0652418 -0.109263 19.0625 -11.4122 20.1912 0.0025 
7 1 0.00829108 -0.0137609 0.00249927 0 0 0 0.0947136 0.242905 0.0913012 0.0305217 0.0776864 -0.052108 20.813 -28.202 -31.306 0.0025 
233 1 0.0174827 -0.0106775 0.00261838 0 0 0 0.105208 0.33607 -0.0957207 -0.0139276 0.0276596 0.000890774 33.8611 -29.3143 18.9296 0.0025 
313 1 0.0336791 -0.0121555 0.00239793 0 0 0 -0.101469 -0.435568 -0.119131 0.000728317 0.0108857 0.216595 -11.6585 -28.7452 -15.9582 0.0025 
426 1 0.042308 -0.0106239 0.00254171 0 0 0 0.138453 -0.0015661 -0.134007 -0.0744982 -0.040402 -0.00380003 -6.89991 -35.1424 13.404 0.0025 
196 1 -0.045024 -0.0108013 0.00251036 0 0 0 -0.0159505 0.0151724 0.0856755 0.00606886 -0.151092 -0.00878565 39.2718 -26.9473 10.4196 0.0025 
238 1 -0.0411501 -0.00772653 0.00248419 0 0 0 0.0720357 -0.190963 0.000625917 0.0208631 -0.0702375 -0.0022864 11.6894 -5.9052 37.9372 0.0025 
36 1 -0.0297815 -0.00952973 0.00240501 0 0 0 0.228442 -0.0158564 0.334779 -0.0235096 0.0125592 0.146561 -17.3744 -38.0651 19.1192 0.0025 
252 1 -0.0194882 -0.00902019 0.00248117 0 0 0 0.104429 -0.033982 0.247444 -0.000267954 0.000625042 0.011996 -15.6654 29.3859 -39.3637 0.0025 
117 1 -0.0144506 -0.0105924 0.00240443 0 0 0 0.284439 0.215682 0.0459898 -0.00805339 -0.00544339 0.192804 -0.163155 -13.8809 44.0335 0.0025 
240 1 0.00502395 -0.00968779 0.00307295 0 0 0 -0.106174 -0.168334 -0.0108797 -0.0214189 -0.0617311 0.00443685 14.1348 -3.69284 23.2461 0.0025 
24 1 0.0107942 -0.00881127 0.00255347 0 0 0 -0.0199548 0.161395 0.304288 -0.0190777 0.0295103 -0.0226143 51.2319 -3.83639 -4.9944 0.0025 
338 1 0.0236339 -0.00976792 0.00249244 0 0 0 -0.231515 0.105913 -0.0153107 0.000222076 4.1482e-05 0.00291318 -69.7605 53.5747 -2.02763 0.0025 
337 1 0.0286898 -0.0103255 0.00244943 0 0 0 0.0883935 0.0830957 0.187828 -0.000318869 -0.00357637 0.070206 -13.6486 33.9876 15.243 0.0025 
237 1 0.0378892 -0.00833737 0.00285534 0 0 0 0.0627324 -0.134417 -0.25592 -0.00726071 0.00423037 -0.00108213 -54.6981 10.9164 14.4103 0.0025 
362 1 0.0467524 -0.0085138 0.00284179 0 0 0 0.0300346 0.0406109 -0.00972852 0.0611404 0.0393797 0.000960343 7.19877 15.3404 -2.84304 0.0025 
292 1 -0.0470831 -0.00634069 0.00249809 0 0 0 0.074053 -0.226157 0.0576403 -0.0604422 0.103156 0.00322317 3.44682 -5.37104 -1.63381 0.0025 
949 1 -0.0371319 -0.00485559 0.00238044 0 0 0 -0.405956 0.351549 0.100362 0.0626185 0.0323012 0.257652 -8.13961 -33.0353 -77.796 0.0025 
367 1 -0.0315695 -0.00476583 0.00261809 0 0 0 0.0404071 -0.279408 -0.0882151 0 0 -0.00160516 39.9293 -78.1582 35.0127 0.0025 
49 1 -0.0249559 -0.00660055 0.00254747 0 0 0 -0.0847493 -0.246375 0.0332058 0.0441913 -0.00944384 -0.0667843 29.5791 -31.7819 15.1515 0.0025 
328 1 -0.0161203 -0.00527908 0.00296887 0 0 0 -0.00795709 -0.282871 -0.370406 0.0395153 -0.0338884 0.00184998 53.0915 -39.6051 8.04993 0.0025 
278 1 -0.0111128 -0.00565917 0.00250516 0 0 0 -0.0444852 0.167288 -0.341197 -0.0651854 0.0901444 -0.0511997 26.8143 -26.5227 38.4754 0.0025 
61 1 -0.00587957 -0.00465917 0.0026673 0 0 0 0.0227765 -0.38094 0.12219 0.0018692 -0.000398859 -0.00432577 -24.0253 26.2925 -54.1502 0.0025 
347 1 -0.000609418 -0.00584026 0.00238821 0 0 0 0.082056 -0.267621 -0.1469 -0.213859 0.027127 -0.00437978 36.2442 16.5828 25.928 0.0025 
202 1 0.00641274 -0.0049596 0.00268421 0 0 0 -0.194125 -0.354167 0.0656198 0.0214189 0.0617311 -0.00764716 9.59217 26.2883 -40.7105 0.0025 
154 1 0.0117424 -0.00371038 0.00284175 0 0 0 -0.279532 0.129509 -0.00626309 -0.0550752 -0.108992 -0.0470604 20.3594 6.59999 -38.8663 0.0025 
80 1 0.0165643 -0.00540507 0.00298169 0 0 0 0.102682 0.336071 -0.231814 -0.00312018 -0.0109211 0.000151253 -45.7721 -14.3761 5.02837 0.0025 
1046 1 0.0281675 -0.00522316 0.00263589 0 0 0 0.410943 0.362431 -0.0376796 -0.00515427 -0.0706234 -0.000139493 9.50289 -18.4495 8.02751 0.0025 
92 1 0.0329647 -0.00716873 0.00271272 0 0 0 0.163176 0.263813 0.190634 0 0 -0.00160516 47.2543 28.3492 -10.9905 0.0025 
945 1 -0.0431907 -0.00324717 0.00272353 0 0 0 -0.147321 -0.0469347 0.00797735 -0.0202878 0.030396 -0.0800997 45.1565 12.4154 7.76429 0.0025 
1341 1 -0.0391744 -0.000279225 0.00261421 0 0 0 -0.369027 -0.0876054 0.0668767 -0.0200416 -0.04143 -0.0263099 38.221 2.01394 -7.81914 0.0025 
98 1 -0.0342609 -0.000490152 0.00285694 0 0 0 -0.122617 -0.176485 -0.103648 0.066368 -0.0455967 -0.0200333 -12.6303 26.5091 -29.1505 0.0025 
342 1 -0.0271207 -0.0020785 0.00249239 0 0 0 0.0452493 -0.0375691 -0.568999 0.0281677 -0.0434465 0.0116223 -39.836 -42.082 13.2486 0.0025 
1337 1 -0.0202522 -0.0025649 0.00265514 0 0 0 0.263325 0.010229 -0.498575 -0.040737 0.024263 -0.00348598 85.0038 -0.36968 19.577 0.0025 
1127 1 -0.0155301 -0.000363882 0.00241537 0 0 0 0.0647297 -0.0129877 -0.123277 0.00194524 -0.0696453 0.139431 1.36295 -24.4458 -25.0174 0.0025 
251 1 -0.0100682 -0.000779157 0.0023565 0 0 0 -0.275835 -0.0225 0.393918 0.0198948 0.00832639 0.345806 -1.32505 -69.1628 -73.5926 0.0025 
21 1 0.00214699 -0.00143192 0.00256888 0 0 0 0.321189 -0.0171611 -0.0509657 -0.0718327 -0.121617 -0.0444858 -50.8208 30.5409 46.9183 0.0025 
1041 1 0.0180106 -0.000664158 0.00245083 0 0 0 0.0441403 -0.0297463 -0.254422 -0.0203797 0.0166607 0.0407668 -54.7179 -49.4124 3.28443 0.0025 
408 1 0.0282967 -0.000288754 0.00244557 0 0 0 0.0308438 0.223601 -0.179505 0.0105541 0.0709143 0.0734376 -15.8624 30.7967 -1.14236 0.0025 
425 1 0.0387411 -0.00254787 0.00250817 0 0 0 -0.086663 0.00532332 0.161556 0.146646 0.110666 -0.257663 10.532 -32.6675 8.19554 0.0025 
1346 1 0.0431262 -5.25365e-05 0.00257998 0 0 0 -0.196199 0.0152905 0.185209 -0.0998219 -0.0519176 -0.000670545 -23.9811 -24.0833 -14.8217 0.0025 
305 1 0.0469836 -0.00350542 0.00246954 0 0 0 -0.495759 -0.0973494 0.150595 0.00159554 0.000371979 0.0311613 1.51204 -37.9591 -17.2546 0.0025 
255 1 -0.00542364 -0.0471222 0.00379012 0 0 0 -0.186321 -0.11845 -0.201125 0 0 -0.00160516 -39.5961 46.1661 -29.1753 0.0025 
189 1 -0.000693844 -0.0474619 0.00680643 0 0 0 0.232846 0.187241 -0.554977 0.205373 -0.059047 -0.245764 -38.4818 -27.3145 -16.1827 0.0025 
257 1 0.0062677 -0.0462359 0.00688762 0 0 0 0.0495144 -0.0474424 0.0258122 -0.00207275 -1.7676e-06 -0.00245937 -22.7947 -18.3636 40.6176 0.0025 
82 1 -0.0226793 -0.0395341 0.00664935 0 0 0 -0.277759 0.208707 0.0644864 0 0 -0.00160516 10.0429 -41.3111 -66.5198 0.0025 
354 1 -0.00348417 -0.0430194 0.00664369 0 0 0 -0.304193 -0.573103 0.141043 0.00117027 -0.0119691 -0.00249282 -43.8555 -16.071 31.4815 0.0025 
377 1 0.00184052 -0.0431962 0.00628494 0 0 0 -0.0472471 -0.279184 0.171019 0.00499138 0.00830303 -0.00311307 -65.5621 -26.8157 -8.88266 0.0025 
102 1 -0.0289736 -0.037781 0.00690962 0 0 0 -0.313932 0.0534552 0.322533 0.202331 0.0587275 -0.0127466 -2.94642 8.67595 70.9568 0.0025 
16 1 -0.018505 -0.036538 0.00657223 0 0 0 0.106181 -0.145008 -0.35565 0 0 -0.00160516 30.2468 -39.2163 -5.37668 0.0025 
8 1 -0.0142228 -0.0393988 0.00691409 0 0 0 0.0321355 -0.404259 -0.251459 -0.000906949 0.000176214 -0.000384176 15.137 -5.99058 -46.662 0.0025 
167 1 -0.00835273 -0.0377731 0.00466069 0 0 0 0.387856 -0.168403 -0.239754 0.0549481 -0.0114165 0.0214296 37.9623 81.6303 -0.643982 0.0025 
70 1 0.00149239 -0.0363491 0.00601498 0 0 0 -0.204262 -0.0957694 -0.0327404 0 0 -0.00160516 -26.086 25.0814 -15.8735 0.0025 
332 1 0.0222844 -0.0393313 0.00654221 0 0 0 0.241504 0.149085 0.0883469 -0.0848904 0.0176613 0.161255 -54.2797 2.48288 -59.1423 0.0025 
348 1 -0.0249959 -0.0349762 0.00607099 0 0 0 0.0412907 0.292888 -0.116495 0.267093 -0.214962 -0.0504756 -58.2449 -20.1779 34.8372 0.0025 
378 1 -0.012663 -0.0329702 0.00624606 0 0 0 0.0506119 -0.267564 -0.328995 0.183464 -0.048787 -0.204705 6.25846 -89.9971 -62.617 0.0025 
170 1 0.00687211 -0.0349512 0.00660396 0 0 0 0.0909503 -0.0435618 0.127828 -0.0268083 0.0609709 -0.0577002 -15.3428 11.6588 -1.82489 0.0025 
357 1 0.0126469 -0.0353398 0.00689898 0 0 0 0.0820449 -0.242317 -0.321593 -0.0428117 -0.238027 -0.247635 22.4971 37.7285 -36.4417 0.0025 
262 1 0.0208011 -0.0324047 0.00627329 0 0 0 0.254169 -0.115023 -0.00180065 -0.0196456 -0.00772188 0.0245756 -18.216 -17.1537 58.4766 0.0025 
194 1 0.026832 -0.0338465 0.00687908 0 0 0 -0.32171 -0.239214 -0.0979568 0 0 -0.00160516 -83.4154 -74.7612 -150.142 0.0025 
369 1 0.0341259 -0.0330548 0.00423392 0 0 0 0.0855796 -0.242367 0.19308 -0.0065412 0.00676616 -0.00195965 -4.37827 10.7083 -17.5305 0.0025 
11 1 -0.0334829 -0.0297903 0.00620043 0 0 0 -0.310469 0.0479941 -0.0600525 -0.0485643 -0.0872816 0.124831 -59.8284 -17.7536 -26.9122 0.0025 
314 1 -0.0284924 -0.0317059 0.00667339 0 0 0 0.00913829 0.210384 0.0295734 -0.239094 0.237356 0.0337335 57.2941 19.3214 -61.7744 0.0025 
182 1 -0.0211137 -0.0319756 0.00525476 0 0 0 -0.00433719 0.209438 -0.356407 0.0155532 0.0123141 -0.00392154 63.8728 -0.645516 -26.276 0.0025 
152 1 -0.0160395 -0.0294456 0.00673379 0 0 0 0.26641 -0.263035 -0.204183 -0.0293821 0.011339 0.149833 -1.66396 41.6176 -16.3613 0.0025 
39 1 -0.00841539 -0.0297604 0.00667144 0 0 0 0.534746 -0.0318989 -0.271476 -0.0020911 -0.00406049 5.67425e-05 -65.2806 60.1767 0.607988 0.0025 
115 1 -0.00475456 -0.0300032 0.00298765 0 0 0 -0.155375 -0.38363 -0.583867 0.148296 0.118899 0.0315898 4.54781 -10.0472 48.6122 0.0025 
160 1 0.00295384 -0.0316698 0.00737579 0 0 0 -0.0756519 -0.492192 -0.180344 -0.0284554 -0.118216 0.0253644 52.0822 36.4251 34.7214 0.0025 
320 1 0.0144299 -0.0305794 0.00547406 0 0 0 0.228517 -0.0450712 -0.272554 0 0 -0.00160516 -26.9713 76.6879 34.1605 0.0025 
260 1 -0.0384648 -0.0279427 0.00711044 0 0 0 0.203842 -0.341032 0.178596 0.00401567 -0.00907919 0.00656023 34.0379 2.58856 -78.2244 0.0025 
294 1 -0.0303449 -0.0259912 0.00642062 0 0 0 0.303752 -0.185302 0.119394 0.0478229 0.0637648 0.000575516 31.8715 -19.4478 -35.7377 0.0025 
394 1 -0.0225077 -0.0269402 0.00443525 0 0 0 0.274142 0.0318173 -0.278283 0.0279041 0.00138367 -0.039187 43.9371 -20.9183 20.0719 0.0025 
164 1 -0.00189012 -0.0251842 0.00585092 0 0 0 -0.110975 0.0451726 0.065017 -0.0308188 0.0368036 -0.0030641 28.5679 18.4552 -47.5068 0.0025 
76 1 0.00392657 -0.0269414 0.00649502 0 0 0 -0.245513 0.271139 0.151584 0.0280669 0.117358 -0.0300938 12.5345 -19.8292 -16.9419 0.0025 
323 1 0.0200197 -0.0269182 0.00665629 0 0 0 0.110224 -0.0879155 -0.177221 0.049577 -0.0158998 -0.19796 30.1884 25.7231 -74.9479 0.0025 
435 1 0.0290079 -0.0265752 0.00562123 0 0 0 -0.121696 -0.193916 0.053761 -0.092933 0.102977 -0.0539137 16.8701 17.9153 -39.0505 0.0025 
132 1 0.0361356 -0.025138 0.00548598 0 0 0 0.229602 -0.214123 -0.490587 -0.0957607 0.0191927 0.0881671 0.0994403 16.9291 -67.2698 0.0025 
372 1 -0.0410473 -0.0233283 0.00705819 0 0 0 0.00973381 -0.476188 -0.110588 -0.0117944 0.0363438 0.0666297 -54.5964 -13.92 -17.8821 0.0025 
55 1 -0.0352969 -0.0242053 0.00646429 0 0 0 0.0382777 0.0869907 0.401073 0.0427162 0.0460878 -0.0114252 13.697 13.3128 98.4822 0.0025 
374 1 -0.0120551 -0.0238703 0.00524763 0 0 0 -0.272987 -0.0684982 0.17562 0.0169281 0.0661088 -0.118233 17.6233 27.8346 -49.785 0.0025 
165 1 -0.00741069 -0.0212732 0.00618769 0 0 0 -0.111704 0.353986 0.150943 0.219957 -0.263241 0.177362 21.5993 -6.86929 3.58496 0.0025 
383 1 0.00477401 -0.0220925 0.00561983 0 0 0 -0.0648295 -0.144008 -0.0294635 0.000160196 0.00108684 -0.00175272 12.7211 35.4822 -11.8989 0.0025 
391 1 0.0245245 -0.0234396 0.00618475 0 0 0 0.292157 0.0592505 0.00940138 0.020913 0.230839 -0.15326 106.291 3.87641 -16.1716 0.0025 
382 1 -0.0316498 -0.0207886 0.00625937 0 0 0 -0.145366 0.196301 -0.117 -0.0917143 -0.0117607 0.123683 60.3367 -83.4897 -6.4698 0.0025 
163 1 -0.0218178 -0.0215948 0.00724904 0 0 0 -0.219228 -0.27949 0.253269 0.428176 -0.0411219 -0.000230083 8.25467 58.7668 11.7809 0.0025 
201 1 -0.0176668 -0.0187109 0.00648476 0 0 0 -0.170075 -0.050755 0.0796814 0.153439 -0.017938 0.291086 -8.8996 4.55816 -7.71116 0.0025 
41 1 -0.00226202 -0.0202265 0.0070049 0 0 0 -0.11748 -0.0764166 -0.0576282 -0.0178598 -0.0168164 0.000678725 -43.4335 -39.6536 38.7975 0.0025 
140 1 0.0216082 -0.0177689 0.00624499 0 0 0 0.151765 0.0823992 0.170229 0.0265497 0.0719166 -0.0248701 -12.5563 -38.9747 23.9191 0.0025 
356 1 0.0265088 -0.0184907 0.00664786 0 0 0 -0.076994 0.460022 0.174552 0.0624506 0.01338 0.0681532 -106.74 2.63478 -16.7997 0.0025 
183 1 0.0336781 -0.0210833 0.00388337 0 0 0 0.311709 0.0946296 -0.28107 0 0 -0.00160516 -79.7442 23.3302 18.3182 0.0025 
282 1 0.0417783 -0.0204695 0.00703651 0 0 0 0.1731 0.119359 0.531366 0 0 -0.00160516 68.4081 -7.30614 28.76 0.0025 
231 1 -0.0440413 -0.0157699 0.00322868 0 0 0 0.0821898 -0.331685 -0.212103 0 0 -0.00160516 11.3121 -35.9295 -12.0976 0.0025 
121 1 -0.0393724 -0.0176924 0.0054955 0 0 0 -0.186316 0.253832 -0.0639473 0.110636 -0.167729 -0.0459557 53.6438 -7.29715 -13.1696 0.0025 
120 1 -0.022187 -0.0163134 0.00660315 0 0 0 0.174026 0.198292 -0.21289 0.0134507 0.00761204 0.0335909 7.18053 -14.9354 4.47159 0.0025 
23 1 -0.0103681 -0.0175939 0.00745644 0 0 0 -0.396026 0.211001 0.3534 -0.0991636 0.137699 0.0384441 23.5284 -33.5406 -22.6869 0.0025 
353 1 0.0014883 -0.0169808 0.00667972 0 0 0 -0.0279228 -0.298723 0.0857737 -0.0125963 0.00186141 0.0519012 -7.5401 35.1404 1.07037 0.0025 
340 1 0.00965605 -0.0164882 0.00673341 0 0 0 -0.278415 -0.218851 -0.039981 0.0256132 0.00759025 -0.0458575 -29.6155 42.99 82.0754 0.0025 
54 1 0.0158125 -0.01639 0.00627521 0 0 0 0.489664 0.296784 0.00363102 0.0908598 -0.0385111 -0.00188053 -42.6966 91.6887 -6.30863 0.0025 
2 1 0.0245052 -0.0147279 0.00339374 0 0 0 -0.14051 0.216645 -0.324188 0.0224019 0.00125595 0.0036757 14.0283 3.76516 -45.0166 0.0025 
1 1 0.0354815 -0.0163626 0.00461733 0 0 0 0.173022 -0.00130648 0.410949 0 0 -0.00160516 21.1924 -61.6082 86.9341 0.0025 
104 1 0.0454408 -0.0140723 0.00451501 0 0 0 0.167449 0.0471386 -0.0632326 -0.121337 0.0313541 0.000356951 3.62778 -12.4629 6.11913 0.0025 
336 1 -0.0413365 -0.0110783 0.00616396 0 0 0 0.127894 -0.19902 0.119154 -0.000168259 -0.00812039 0.00655004 -12.7764 -11.6957 41.2095 0.0025 
436 1 -0.026673 -0.0108256 0.00605444 0 0 0 0.153766 0.439476 0.13785 0.0190776 -0.0097229 0.0228603 4.55331 30.8484 -22.1318 0.0025 
326 1 -0.0176969 -0.0142166 0.00363197 0 0 0 -0.154756 -0.370432 0.0212551 0.040377 0.0637987 0.0133142 -30.0137 78.8299 -31.1501 0.0025 
397 1 -0.0118626 -0.0120951 0.00643241 0 0 0 -0.0327328 0.129097 -0.226236 -0.0497715 0.0139316 0.0131824 -33.9816 -31.9798 2.35431 0.0025 
321 1 -0.003158 -0.0145706 0.00622187 0 0 0 0.207324 -0.275945 -0.178048 0.169428 -0.131211 0.300173 1.29995 12.6281 32.7491 0.0025 
442 1 0.0026709 -0.0116607 0.00703733 0 0 0 0.0241826 -0.111245 0.0675694 0.00828126 -0.00262373 -0.00664416 36.0266 -14.1474 87.2324 0.0025 
401 1 0.0081817 -0.0115891 0.00694315 0 0 0 0.0517005 0.108741 0.135364 0.000836847 0.0265647 0.0484051 -24.173 37.3699 -55.4669 0.0025 
384 1 0.0132588 -0.0124126 0.00490599 0 0 0 0.221074 0.0274439 -0.192373 -0.0279961 0.0814362 0.00705793 13.9377 -54.2666 -10.0697 0.0025 
153 1 0.0307241 -0.0125805 0.00648951 0 0 0 -0.204455 -0.0270668 -0.367532 0.0386088 0.00634557 -0.0143837 7.82854 3.0624 11.3398 0.0025 
59 1 0.0397192 -0.0122707 0.00676765 0 0 0 0.0902611 0.195181 -0.481253 -0.029589 -0.00987557 -0.0736133 31.6069 -44.7046 -14.7047 0.0025 
190 1 -0.00838063 -0.00925526 0.00443438 0 0 0 -0.0313914 0.187873 -0.428495 -0.108645 -0.0129702 -0.0322236 55.1605 -41.4992 -10.5669 0.0025 
65 1 -0.00363834 -0.00894735 0.00545479 0 0 0 0.24443 0.213971 -0.14592 0.0231695 0.107448 0.0179856 -24.1944 -72.3029 -53.9881 0.0025 
124 1 0.0349213 -0.00955866 0.00685635 0 0 0 -0.0796455 -0.041595 0.163 0 0 -0.00160516 26.2701 45.4441 -67.7557 0.0025 
27 1 -0.0348856 -0.00633403 0.00656928 0 0 0 -0.347573 0.0193 0.316921 -0.068717 0.0863953 -0.0101958 94.7136 25.0476 23.7991 0.0025 
419 1 -0.0277136 -0.00577165 0.00655337 0 0 0 -0.19501 -0.148919 0.0367996 -0.114484 0.110277 -0.221001 13.2656 18.8962 5.02491 0.0025 
157 1 -0.0219083 -0.00615312 0.00656957 0 0 0 0.128308 -0.286036 -0.12118 0.0173788 -0.0332328 -0.00476332 -12.4021 26.169 -17.9002 0.0025 
248 1 -0.00877777 -0.003852 0.00665027 0 0 0 -0.064297 0.115788 0.0201566 -0.0859345 0.0951476 -0.0760998 -2.04118 13.7956 5.67147 0.0025 
1021 1 -0.00264723 -0.00395696 0.00664797 0 0 0 0.443867 -0.473209 -0.13896 0 0 -0.00160516 -2.43123 -22.1505 22.4199 0.0025 
38 1 0.00236933 -0.0058638 0.00619204 0 0 0 -0.256897 0.210687 -0.284024 0.144221 0.000339577 0.158057 7.86541 48.5873 -37.1241 0.0025 
287 1 0.00869975 -0.00651517 0.00703208 0 0 0 0.116192 -0.0462067 -0.180891 0.0273177 0.00222617 -0.0236294 -4.21693 -41.4285 -9.69749 0.0025 
971 1 0.0220695 -0.00522461 0.00393339 0 0 0 -0.132837 0.285214 -0.137945 0 0 -0.00160516 25.8997 28.7856 5.82606 0.0025 
254 1 0.0256987 -0.00748468 0.00655156 0 0 0 -0.30111 -0.60176 -0.104122 0.00491088 -0.00781693 -0.162234 0.56476 -50.8637 -29.7096 0.0025 
284 1 0.0310041 -0.00641683 0.00739692 0 0 0 -0.336897 -0.281109 0.306426 0 0 -0.00160516 26.1611 -25.5687 -0.96763 0.0025 
290 1 0.0363202 -0.00434911 0.0062885 0 0 0 0.0621011 0.00607231 -0.226464 -0.056605 -0.174932 0.337657 35.4059 -19.5178 4.98625 0.0025 
122 1 0.0420103 -0.00586996 0.00428792 0 0 0 -0.171255 0.118287 0.251664 0.00390033 -0.00396168 0.000842439 -20.8896 -75.4556 31.1276 0.0025 
381 1 -0.0474177 -0.00370319 0.00677757 0 0 0 -0.0569621 -0.110064 0.136663 -0.175059 0.103818 -0.134758 17.5874 -0.182427 -60.7735 0.0025 
1189 1 -0.043116 -0.000553473 0.00683892 0 0 0 0.0360657 0.035372 0.180432 -0.00695456 0.196669 0.0238483 -32.0446 -54.1469 -57.502 0.0025 
42 1 -0.0383592 -0.00277375 0.00684978 0 0 0 -0.0222996 -0.0290623 -0.0778579 -0.00832671 0.00362016 0.00950835 9.19995 -4.64199 -3.28787 0.0025 
1116 1 -0.0237908 -0.00158349 0.00673779 0 0 0 -0.0504259 -0.0611004 -0.0741363 0.0048126 0.0431562 -0.00225467 24.0459 -26.3529 25.7399 0.0025 
1282 1 -0.0127694 -0.000511532 0.00655179 0 0 0 0.0699503 0.0162915 0.0890989 0.00771243 -0.0010053 0.0144197 31.5665 24.5705 -34.0952 0.0025 