ITEM: TIMESTEP
12800
ITEM: NUMBER OF ATOMS
1800
ITEM: BOX BOUNDS mm mm mm
-0.05 0.05
-0.05 0.05
0 0.15
ITEM: ATOMS id type x y z ix iy iz vx vy vz fx fy fz omegax omegay omegaz radius 
410 1 -0.00873838 -0.0465131 0.00278585 0 0 0 0.0162816 -0.175335 -0.184874 0 0 -0.00160516 8.93422 -23.6951 -10.0073 0.0025 
255 1 -0.0035685 -0.0471185 0.00278269 0 0 0 0.0304343 -0.0143991 -0.197547 0.000206534 -0.00047709 -0.00164523 11.4078 48.2926 -10.4055 0.0025 
150 1 0.00381705 -0.0470084 0.00340787 0 0 0 0.0110365 0.00560503 0.145688 0.0765743 -0.0813839 0.0127526 -27.3169 -24.8462 -20.0278 0.0025 
217 1 -0.0163764 -0.0443307 0.00284001 0 0 0 0.090192 0.00341153 0.0177796 -0.0435243 0.0130376 -0.0435391 -7.50687 31.6853 12.5256 0.0025 
218 1 -0.0055457 -0.0425302 0.00291766 0 0 0 0.0561328 -0.0307984 -0.131881 -0.000429822 -0.0571254 -0.0595877 6.5525 57.8709 6.73393 0.0025 
28 1 0.000602306 -0.0433804 0.00258546 0 0 0 0.115391 0.0531781 -0.0332047 -0.0930541 0.0724896 -0.0623466 -9.01935 23.0789 1.08439 0.0025 
279 1 0.0161522 -0.0447134 0.00248712 0 0 0 -0.0690131 -0.0164445 0.0342701 -0.0925402 0.0159739 0.00782851 -3.85407 32.9645 -0.450372 0.0025 
409 1 0.0205484 -0.0424863 0.00261431 0 0 0 0.0814817 0.11477 0.0225347 0.0763041 0.0370122 -0.00339252 -11.5832 16.8917 8.38159 0.0025 
413 1 -0.0256911 -0.0398012 0.00245487 0 0 0 -0.0495267 0.0743033 -0.0729338 0.0100539 -0.0109664 0.0633579 -24.9108 22.8868 9.75327 0.0025 
37 1 -0.0210278 -0.0424943 0.00249303 0 0 0 0.0107232 0.0564713 0.0515134 -0.000163531 -1.25677e-05 0.0016751 -22.0781 -2.80635 30.7113 0.0025 
103 1 -0.0169596 -0.0391456 0.00279153 0 0 0 0.194971 0.039801 0.165519 0 0 -0.00160516 4.04867 10.3993 -2.55687 0.0025 
18 1 -0.0112113 -0.0420677 0.00261671 0 0 0 0.0198038 0.139082 -0.158335 0 0 -0.00160516 -32.8921 -13.3875 19.5241 0.0025 
85 1 -0.00199485 -0.0389328 0.00259527 0 0 0 0.0313228 0.0773873 0.0761888 0.000323672 -0.0126962 -0.00895063 23.8056 -4.76081 14.1831 0.0025 
141 1 0.00592972 -0.042515 0.0025365 0 0 0 -0.0562533 0.0419151 0.0249577 0 0 -0.00160516 -14.8466 9.43749 -10.8032 0.0025 
230 1 0.0117513 -0.0417615 0.00251384 0 0 0 0.0195226 -0.0962347 -0.103344 0 0 -0.00160516 9.04087 -0.353021 2.87138 0.0025 
101 1 0.0161692 -0.0393862 0.00248147 0 0 0 0.0749679 0.126358 -0.166032 -0.000311623 -0.000897433 0.0173948 48.1053 -4.22236 12.1158 0.0025 
389 1 0.0251463 -0.0401516 0.00242449 0 0 0 -0.258326 -0.0925667 0.165896 0.00557163 0.00371228 0.132296 -32.153 -0.250764 -5.09421 0.0025 
95 1 -0.0215705 -0.0366312 0.00249762 0 0 0 0.0676181 -0.169596 -0.0917749 -7.13384e-06 7.66241e-05 -6.60488e-05 -18.4115 19.0268 11.9469 0.0025 
438 1 -0.0124884 -0.0366971 0.00268641 0 0 0 -0.180446 0.200102 0.0813743 -0.0183752 0.00488592 -0.00297199 15.2537 26.9941 -44.6967 0.0025 
167 1 -0.00772001 -0.0380973 0.00283021 0 0 0 0.0845857 -0.0846215 -0.10184 -0.0112174 0.0612937 -0.00407381 -41.4435 -1.5927 -1.34531 0.0025 
268 1 0.00471559 -0.0375924 0.00269223 0 0 0 0.153522 -0.0225901 -0.0713337 0.00644178 -0.00676129 -0.0017766 4.53902 -38.3606 23.0381 0.0025 
126 1 0.0113533 -0.0367387 0.00262285 0 0 0 0.0483338 -0.102636 0.0336312 0 0 -0.00160516 -45.8787 -5.33131 17.4722 0.0025 
213 1 0.0203629 -0.036162 0.00251669 0 0 0 -0.107588 0.191587 0.239303 -0.0399736 0.000973998 -0.127848 12.6869 3.5764 9.88159 0.0025 
134 1 0.0251549 -0.0350673 0.00292392 0 0 0 0.15825 -0.246204 -0.206142 0.0813644 -0.00694795 0.00875807 57.9373 33.4588 -32.0672 0.0025 
309 1 0.030091 -0.0367675 0.00251794 0 0 0 0.116119 0.229751 -0.200531 -0.00442854 0.00493914 -0.00146222 -21.0515 -38.6767 -11.5844 0.0025 
10 1 -0.0330627 -0.034114 0.00259174 0 0 0 0.0372709 0.248153 -0.120032 0.001006 0.0010982 -0.0015814 -29.4936 20.5067 5.25665 0.0025 
244 1 -0.0282758 -0.0355426 0.00253908 0 0 0 0.167565 -0.0118747 0.0688056 -0.00671511 0.0105252 -0.00190363 -7.2004 -13.8103 -5.15776 0.0025 
81 1 -0.016156 -0.0331101 0.00248727 0 0 0 -0.0826812 0.0368319 0.0331245 -0.00913988 -0.0133078 -0.0582142 -9.58004 -29.1688 12.9492 0.0025 
291 1 -0.00906491 -0.0327481 0.00273307 0 0 0 -0.0303137 0.0316191 0.030261 0 0 -0.00160516 67.3223 -3.7953 -13.1612 0.0025 
295 1 -0.00418472 -0.0344584 0.00248108 0 0 0 0.0334584 -0.0129421 0.118577 -0.0011399 -0.0129828 0.00669969 5.12598 -17.4663 -21.0048 0.0025 
68 1 0.000880962 -0.0344153 0.00249154 0 0 0 0.0925384 -0.0518894 -0.0953392 -0.00838113 0.00527235 0.00237194 20.6386 -18.4277 17.0308 0.0025 
234 1 0.0156124 -0.0338749 0.00257094 0 0 0 -0.0518155 0.163801 -0.161728 0 0 -0.00160516 -9.92754 19.4043 -20.3037 0.0025 
369 1 0.0340269 -0.0328691 0.00264668 0 0 0 -0.301447 -0.0703613 -0.0264463 0.0350811 -0.102489 -0.00275945 3.00565 30.9449 30.9405 0.0025 
306 1 -0.0364506 -0.0303955 0.00251561 0 0 0 0.101357 -0.0201168 -0.16173 -0.00150867 -0.00043778 -0.00447913 43.5249 -1.59456 -31.3551 0.0025 
266 1 -0.0313221 -0.0294337 0.00285841 0 0 0 0.17247 -0.147556 0.0715915 0.0192382 -0.0647046 -0.0190222 -11.3021 -53.9545 32.5386 0.0025 
113 1 -0.0259473 -0.0305335 0.00252118 0 0 0 0.133364 -0.0723879 -0.0794829 -0.0489781 0.0142794 -0.0125651 24.5677 6.09442 -15.7593 0.0025 
225 1 -0.000153538 -0.0293873 0.00264699 0 0 0 -0.0352013 -0.144829 0.0881165 0.0396724 -0.0571905 -0.0427731 21.1677 -21.5676 -33.3419 0.0025 
30 1 0.00539521 -0.0304327 0.00250092 0 0 0 0.0733246 -0.0165536 -0.000370414 0 0 -0.00160516 11.5323 18.5074 29.8297 0.0025 
220 1 0.0108853 -0.0316113 0.00244415 0 0 0 -0.0313079 0.0235371 -0.0971518 0.00426049 0.00147374 0.0874568 -9.93105 -11.3092 -25.9972 0.0025 
440 1 0.0190182 -0.0299484 0.00286134 0 0 0 -0.057577 -0.0127684 0.0632338 -0.0185949 -0.0207581 -0.0431806 15.9376 -8.52168 -11.0972 0.0025 
13 1 0.0242919 -0.0301798 0.00280261 0 0 0 0.0469866 0.0807042 -0.0633275 -0.00347695 0.0276736 -0.00241141 -9.58956 22.623 -3.20854 0.0025 
66 1 0.0292112 -0.0317303 0.0033755 0 0 0 -0.042764 0.144065 -0.0812998 0 0 -0.00160516 -21.2789 -6.14971 -11.9717 0.0025 
205 1 0.0376056 -0.028931 0.00268658 0 0 0 -0.0546368 -0.0175277 0.0936912 0 0 -0.00160516 9.23947 -4.49093 11.8411 0.0025 
296 1 -0.039558 -0.0260992 0.00249894 0 0 0 0.021533 0.0812945 -0.122352 -3.49625e-05 -4.00841e-05 -0.000541369 -19.0358 -3.1503 -33.4476 0.0025 
195 1 -0.0277891 -0.0256707 0.00255846 0 0 0 0.20256 -0.125985 -0.281731 0 0 -0.00160516 2.15531 -2.60112 9.62273 0.0025 
394 1 -0.022489 -0.0269066 0.00263275 0 0 0 0.0526874 0.0946293 -0.151844 -0.000285397 0.00103847 -0.00176341 27.8717 -6.20933 -4.04655 0.0025 
434 1 -0.0175885 -0.0281239 0.00262759 0 0 0 0.0336435 -0.0540206 0.172932 -0.0609963 0.021795 -0.0275265 -12.2254 5.28213 25.9812 0.0025 
286 1 -0.00882506 -0.0265032 0.00251122 0 0 0 -0.0423902 0.104821 0.122141 0 0 -0.00160516 16.4829 2.43257 3.0644 0.0025 
32 1 0.00950019 -0.0241696 0.00271109 0 0 0 0.216143 0.159028 0.0863209 -0.0015982 -0.0029269 -0.010174 -42.3542 46.7322 22.2427 0.0025 
346 1 0.0135137 -0.0273372 0.00272444 0 0 0 0.129157 -0.0545285 -0.218884 0 0 -0.00160516 51.9424 34.5923 -1.27985 0.0025 
304 1 0.0279678 -0.0264108 0.00281113 0 0 0 0.040658 0.0717184 0.110332 0.0267314 -0.00543176 -0.00301207 -71.9288 27.0385 -13.7455 0.0025 
285 1 0.0326644 -0.0281422 0.00265527 0 0 0 0.0800776 -0.049891 -0.116953 -0.0547118 0.0817123 -0.0121217 -15.5422 -2.48627 -5.57412 0.0025 
365 1 -0.0330159 -0.0248182 0.00329461 0 0 0 -0.161187 -0.00386137 -0.241117 -0.0346165 0.0762323 -0.00762747 -45.4584 -14.7491 54.6202 0.0025 
15 1 -0.0241602 -0.0218424 0.00273485 0 0 0 -0.00887524 -0.101551 0.0270489 -0.000182511 3.33221e-05 -0.00160309 -38.6825 13.594 -43.9572 0.0025 
421 1 -0.0192048 -0.0224936 0.00268688 0 0 0 0.0383727 0.0237891 0.0142129 0.000182511 -3.33221e-05 -0.00160723 -6.9944 0.3912 4.96161 0.0025 
374 1 -0.0139811 -0.0244865 0.00250418 0 0 0 0.00812189 0.128784 -0.0940296 0.0115905 0.00652273 -0.0217395 47.4545 -34.5375 -13.7465 0.0025 
334 1 -0.00530297 -0.0226716 0.00268818 0 0 0 0.105852 0.114603 -0.0835223 0.0101581 -0.0882211 0.00205141 -19.6433 4.77968 -24.0799 0.0025 
87 1 0.00032111 -0.0218146 0.00281617 0 0 0 -0.128647 0.0438937 0.095118 0.00767508 -0.0203399 -0.002317 -2.22985 -12.164 4.11141 0.0025 
75 1 0.0139031 -0.0217725 0.0028319 0 0 0 0.197855 0.0565887 -0.0504721 0 0 -0.00160516 -26.8883 45.1723 -44.7289 0.0025 
424 1 0.0178849 -0.0248488 0.00256215 0 0 0 -0.2383 -0.0352003 -0.0713179 0 0 -0.00160516 -6.11967 2.8067 8.8148 0.0025 
307 1 0.0231493 -0.0252034 0.00295945 0 0 0 0.332291 0.126357 0.0671851 -0.0267314 0.00543176 -0.000198246 37.7798 -1.74407 27.9772 0.0025 
44 1 0.0404423 -0.0247898 0.00325253 0 0 0 0.0781373 -0.0573636 0.0211961 0 0 -0.00160516 13.6761 8.81464 33.6732 0.0025 
58 1 -0.0422759 -0.0216577 0.00247578 0 0 0 0.149389 0.11178 0.119604 -0.00643631 -0.001592 0.0214381 -10.1371 12.1417 35.5371 0.0025 
404 1 -0.037289 -0.0213898 0.00246784 0 0 0 -0.233898 -0.133192 -0.0484291 0.0138205 -0.00965298 0.0301137 -2.3254 33.1763 -27.5979 0.0025 
187 1 -0.0291284 -0.0208326 0.00248699 0 0 0 0.0815317 -0.0163769 0.0109038 0.0200787 -0.00398704 -0.00972075 26.7239 0.606845 -17.9689 0.0025 
293 1 -0.0148477 -0.0187977 0.00255164 0 0 0 -0.146001 -0.166633 0.119894 0 0 -0.00160516 11.8746 -45.2456 -5.60532 0.0025 
433 1 -0.0101851 -0.0208739 0.00253196 0 0 0 0.0369232 0.143528 -0.171105 0 0 -0.00160516 4.9404 -54.8123 1.93425 0.0025 
273 1 0.00841402 -0.0190857 0.00271378 0 0 0 0.0639476 -0.221306 -0.0794148 0 0 -0.00160516 1.20381 31.6057 24.8955 0.0025 
366 1 0.0185048 -0.0193974 0.0026892 0 0 0 -0.165341 0.0705868 0.136662 0 0 -0.00160516 -0.84745 -2.18601 14.0564 0.0025 
159 1 0.0241231 -0.0183896 0.00248365 0 0 0 -0.2224 0.0352053 0.241888 0.000494369 0.000181632 0.00892842 -47.3056 1.03117 38.3696 0.0025 
183 1 0.0335508 -0.0182403 0.00254166 0 0 0 -0.123538 0.0930666 0.0788645 0.0163518 -0.0142332 -0.00187693 -40.6086 3.05342 -12.2149 0.0025 
448 1 0.0381149 -0.0203398 0.00278085 0 0 0 -0.0161464 -0.105899 0.0163931 0 0 -0.00160516 -5.79737 -3.12514 -43.1745 0.0025 
339 1 0.0431073 -0.0195518 0.00260665 0 0 0 0.0504316 -0.0491188 -0.0866174 0 0 -0.00160516 -7.88826 12.8827 17.2586 0.0025 
231 1 -0.0440709 -0.0168591 0.00258718 0 0 0 -0.0760271 -0.0389035 0.036294 0 0 -0.00160516 2.75844 -11.0203 -0.22698 0.0025 
9 1 -0.0351456 -0.0161259 0.00261186 0 0 0 -0.0137838 0.0884265 -0.0217337 -0.00882931 -0.00418291 -0.00128676 15.2485 -12.7529 29.0249 0.0025 
445 1 -0.0302828 -0.0150568 0.00247612 0 0 0 0.253853 -0.25657 -0.0228893 0.00954347 0.0036646 0.0229676 -8.29434 -22.5542 -46.4669 0.0025 
6 1 -0.0256984 -0.0170367 0.00276309 0 0 0 -0.0535767 -0.169752 -0.037935 0 0 -0.00160516 -15.5468 -17.0515 -10.2809 0.0025 
380 1 -0.0201363 -0.0173539 0.00249422 0 0 0 -0.0556795 0.014578 0.0615527 0.000102889 -4.69827e-05 0.000657016 7.25416 6.37292 13.1169 0.0025 
158 1 -0.0101228 -0.0139939 0.00246712 0 0 0 0.0814817 0.092915 -0.0452436 -0.00189696 -0.000657665 0.0385495 -26.894 2.48449 -27.1079 0.0025 
40 1 -0.0060984 -0.0178103 0.00247894 0 0 0 0.00811887 -0.124236 -0.113011 -0.0101256 0.0890162 0.0168136 9.27606 -4.70768 -6.95222 0.0025 
52 1 -0.00103112 -0.0170334 0.00259693 0 0 0 0.112633 0.0335168 -0.0628481 -0.00660596 0.0197334 -0.00219295 -16.6019 -16.4036 21.2982 0.0025 
405 1 0.00412239 -0.0160943 0.00276331 0 0 0 0.0427525 -0.0122554 0.195648 -0.0192016 -0.0109305 -0.00165483 4.53206 -4.66372 -42.3718 0.0025 
379 1 0.0128638 -0.0166074 0.0025858 0 0 0 -0.0273468 0.181055 0.0917452 0 0 -0.00160516 6.98772 17.3682 35.5965 0.0025 
142 1 0.0197674 -0.013951 0.00256749 0 0 0 -0.179751 0.0644629 0.0865627 0 0 -0.00160516 -18.1671 -11.5307 28.1028 0.0025 
20 1 0.0296687 -0.0151336 0.00246453 0 0 0 -0.118107 -0.0161932 -0.0526262 -0.0141717 0.0147975 0.0437069 -11.1337 22.8518 -18.4198 0.0025 
386 1 0.0403802 -0.0153524 0.00243259 0 0 0 0.0666459 0.171815 0.000604781 -0.0010297 -0.00569416 0.114125 13.888 11.9132 -36.9065 0.0025 
196 1 -0.0450673 -0.011838 0.00254647 0 0 0 0.20101 0.0809201 -0.0337702 0 0 -0.00160516 7.76038 0.426716 -42.728 0.0025 
74 1 -0.0390083 -0.0129613 0.00250038 0 0 0 -0.00989931 0.00601074 0.0564984 -0.00163526 0.00134384 -0.00175836 -4.33484 -22.5258 -5.18428 0.0025 
449 1 -0.0336679 -0.0113526 0.0028364 0 0 0 0.170834 0.0316808 -0.12415 0.0132054 -0.0163724 -0.00385257 -31.4828 25.9706 -48.0642 0.0025 
331 1 -0.0239719 -0.0121699 0.00255775 0 0 0 0.0216912 -0.0650255 0.077897 -0.0130083 0.00855096 -0.0256399 16.7394 4.57265 -14.8149 0.0025 
326 1 -0.0164522 -0.0138641 0.00320568 0 0 0 -0.218086 0.0131872 -0.112565 0 0 -0.00160516 35.9567 36.5777 -24.7661 0.0025 
226 1 -0.00530429 -0.0126549 0.00253352 0 0 0 0.0981363 -0.000402641 -0.100396 0 0 -0.00160516 1.29612 -6.25588 -10.9733 0.0025 
22 1 -0.000179844 -0.0120381 0.00267444 0 0 0 0.201612 -0.114005 0.171208 0 0 -0.00160516 32.974 61.6922 41.9951 0.0025 
7 1 0.00837348 -0.0135224 0.00256421 0 0 0 -0.0721971 -0.00522603 0.00802687 0.0192016 0.0109305 -0.00155548 4.27794 11.1421 20.5091 0.0025 
2 1 0.0248453 -0.0129003 0.00251055 0 0 0 0.0290871 -0.123215 0.0396589 0.0130001 -0.0233218 -0.00742407 -48.1135 0.99326 -18.4321 0.0025 
313 1 0.0353527 -0.0128501 0.00260598 0 0 0 0.0326266 -0.0549889 -0.0186378 0 0 -0.00160516 29.0492 -46.2223 -54.2659 0.0025 
238 1 -0.0418351 -0.00785575 0.00255614 0 0 0 0.0524792 0.0263458 0.0347791 -0.0137286 -0.00121355 -0.00392291 -3.66946 1.92805 -17.6542 0.0025 
36 1 -0.0287158 -0.0101961 0.00271743 0 0 0 0.147942 -0.0786328 0.0875455 0.0144737 -0.0166385 -0.00206995 15.6692 14.018 16.3396 0.0025 
252 1 -0.0194937 -0.00992221 0.00248439 0 0 0 -0.00796723 -0.0176884 0.0633395 0.00039841 0.000451368 0.0104358 -15.0451 16.3481 20.8966 0.0025 
117 1 -0.0140024 -0.00927706 0.00279028 0 0 0 -0.198468 -0.0843025 0.111932 0 0 -0.00160516 3.02306 -4.33635 21.3039 0.0025 
240 1 0.00465628 -0.00892981 0.00261033 0 0 0 -0.00335896 -0.140928 -0.117615 0 0 -0.00160516 -13.4414 42.7526 28.5246 0.0025 
24 1 0.00983627 -0.00842488 0.00279509 0 0 0 -0.129454 0.135106 -0.0541339 -0.0683078 0.079347 -0.0365021 9.52984 -6.35469 13.0162 0.0025 
233 1 0.017031 -0.0096318 0.00285359 0 0 0 -0.168 -0.0632396 -0.0350463 -0.0151365 -0.0776157 0.00549717 -0.29122 -43.4018 2.51723 0.0025 
337 1 0.0294851 -0.0102552 0.00424672 0 0 0 0.194329 0.103071 -0.0869243 0.0171439 -0.0280042 -0.0145646 7.34805 31.1323 -5.31071 0.0025 
92 1 0.0335534 -0.00772711 0.00250063 0 0 0 -0.0282998 0.0887836 0.0548994 -0.116552 -0.00717736 -0.0100026 -30.7277 -32.4703 20.407 0.0025 
237 1 0.038465 -0.00779817 0.00253614 0 0 0 0.137296 0.00106623 0.0909852 0.113794 -0.0119412 -0.000842439 -12.9188 4.75616 30.1578 0.0025 
426 1 0.0425436 -0.0107236 0.00267234 0 0 0 -0.263595 0.0822547 -0.0329314 0.0036371 0.0671595 -0.0578402 -14.8429 24.027 -19.4582 0.0025 
362 1 0.0467718 -0.00807065 0.00247362 0 0 0 -0.12228 -0.218169 -0.0481696 0.00182417 0.00230161 0.0274028 7.38712 -20.4235 -15.2116 0.0025 
292 1 -0.0469613 -0.00687879 0.00251911 0 0 0 -0.174275 0.0674786 0.0898897 0.00314858 -0.0183196 -0.0240997 6.43563 1.0565 11.8977 0.0025 
949 1 -0.0369417 -0.00766083 0.00345595 0 0 0 0.0660063 -0.138841 0.0170418 0.0005232 0.0175859 0.00296 1.54902 24.1935 9.77771 0.0025 
367 1 -0.0320647 -0.00652565 0.00260357 0 0 0 -0.16064 -0.0231922 -0.072953 -0.0170794 0.014819 -0.00089644 8.03547 0.418573 12.1786 0.0025 
49 1 -0.0241476 -0.00701283 0.00263117 0 0 0 0.00159337 0.182994 -0.0299423 -0.0348957 -0.0107147 -0.0367197 1.33009 -2.32352 5.35233 0.0025 
328 1 -0.0171733 -0.00528155 0.0026185 0 0 0 0.017602 -0.0422616 0.00939573 0 0 -0.00160516 -10.6806 0.392092 3.57764 0.0025 
278 1 -0.0120759 -0.00407011 0.00246033 0 0 0 0.10636 0.125656 -0.0367021 -0.00169123 -0.0020314 0.0512602 12.254 -9.49812 13.8173 0.0025 
61 1 -0.0048444 -0.00617655 0.00264547 0 0 0 0.158204 -0.0220552 -0.218677 0.0118718 0.0121012 -0.00285551 -2.67287 41.1241 -24.8028 0.0025 
347 1 0.000134958 -0.00636646 0.00288506 0 0 0 0.104271 -0.262551 -0.0273665 0.00585121 -4.77275e-05 -0.001558 -16.2374 10.2144 22.7887 0.0025 
202 1 0.00626851 -0.00421873 0.00377747 0 0 0 0.0187807 -0.0633513 0.0395175 0 0 -0.00160516 3.03378 30.5034 -7.83592 0.0025 
80 1 0.0181936 -0.00484971 0.00251102 0 0 0 0.0702985 0.00249884 0.112137 0.0151365 0.0776157 -0.00870749 32.215 2.00459 -37.6415 0.0025 
971 1 0.0236743 -0.00387393 0.00248951 0 0 0 0.0293389 -0.0406041 -0.125929 0.000372291 -0.000218856 0.00703194 41.7944 55.1711 -19.6292 0.0025 
1046 1 0.0296187 -0.00457524 0.00246859 0 0 0 -0.148237 0.0361025 0.152358 0.030897 -0.0582698 -0.00522009 -2.53113 -7.51314 8.61336 0.0025 
945 1 -0.0433753 -0.00299774 0.00277024 0 0 0 0.0256748 0.0621328 0.130976 0 0 -0.00160516 -3.98995 -43.2922 16.1858 0.0025 
803 1 0.0357784 -0.0227954 0.0574609 0 0 0 -0.0564303 0.0185521 0.876619 0 0 -0.00160516 0.631134 20.2378 7.03096 0.0025 
98 1 -0.034794 -0.00223872 0.00268847 0 0 0 -0.0407811 -0.0919403 0.035346 0 0 -0.00160516 -14.6309 8.55174 -22.1552 0.0025 
342 1 -0.0279567 -0.0036939 0.00246878 0 0 0 -0.0765951 0.0356419 0.160532 0.00563891 -0.00543875 0.0311413 9.35889 -28.9987 -3.88693 0.0025 
1337 1 -0.0212869 -0.00237537 0.00243432 0 0 0 -0.100912 -0.0865896 0.0214206 0.00550964 0.000627142 0.109299 32.6048 -19.1101 -7.42626 0.0025 
1127 1 -0.0158475 -8.77891e-05 0.00252894 0 0 0 -0.090471 0.0498438 0.133223 0 0 -0.00160516 -15.8552 -27.7134 -9.962 0.0025 
250 1 -0.00366504 -0.00065796 0.00246633 0 0 0 0.0517473 0.106478 0.129205 -0.00166253 -0.0009953 0.0371485 -39.1158 14.4643 36.8456 0.0025 
21 1 0.00136263 -0.00150364 0.00334906 0 0 0 -0.0235753 -0.020708 -0.113673 0 0 -0.00160516 -21.9351 -9.56448 -0.337522 0.0025 
154 1 0.0114544 -0.00353666 0.00299275 0 0 0 0.0658534 -0.0796141 -0.126584 0 0 -0.00160516 17.5688 43.0084 14.8479 0.0025 
507 1 0.0294804 -0.00258137 0.0298786 0 0 0 0.13176 0.0693795 0.561422 -0.0489881 0.0355521 0.0722976 -13.966 39.697 33.4753 0.0025 
368 1 0.0343956 -0.00190101 0.00379557 0 0 0 0.243586 0.00709689 -0.0203956 -0.0169722 0.0199233 -0.0190064 -2.53837 -34.4204 23.0826 0.0025 
425 1 0.0399073 -0.00304848 0.00288462 0 0 0 -0.000106017 0.065007 0.0628355 0.00577897 0.016103 -0.000502763 6.82683 21.7642 -4.06169 0.0025 
305 1 0.0453544 -0.00328093 0.00273872 0 0 0 0.0339684 0.0396557 -0.0707086 0.035027 -0.0683603 0.0011294 -18.7487 7.89117 -17.6468 0.0025 
189 1 -0.000254211 -0.0475451 0.00702923 0 0 0 0.0655936 -0.220689 0.0826559 -0.0303062 0.0673636 -0.0162641 23.3213 -58.4867 -19.7562 0.0025 
241 1 0.00979852 -0.0464 0.00399004 0 0 0 -0.0273722 0.180552 0.0460895 0 0 -0.00160516 15.887 23.3583 1.54619 0.0025 
352 1 -0.0129838 -0.0456038 0.00620411 0 0 0 -0.00754341 -0.11355 -0.0117509 0.0435243 -0.0130376 0.0403288 -14.2952 -26.498 -22.8866 0.0025 
354 1 -0.00326851 -0.043285 0.00723407 0 0 0 0.193851 -0.0736631 0.0470411 0.0319991 -0.00576429 0.0599808 21.576 -46.0991 17.4527 0.0025 
411 1 -0.0193146 -0.0409986 0.00710927 0 0 0 -0.0139975 0.0621754 -0.00705232 0 0 -0.00160516 -42.3136 31.4711 -0.594819 0.0025 
8 1 -0.014068 -0.0400107 0.00688143 0 0 0 0.0386033 0.0846532 -0.00586536 0.0225023 -0.00961202 -0.0439078 0.360674 -7.55537 -71.9314 0.0025 
444 1 -0.0085985 -0.042512 0.00698031 0 0 0 -0.0156424 -0.0264665 0.00458667 0 0 -0.00160516 9.99171 12.605 37.9515 0.0025 
377 1 0.00200587 -0.0425482 0.00726051 0 0 0 -0.00257301 0.0133835 -0.0132925 0.0164798 0.00889423 0.0447785 14.8867 -32.8406 14.6344 0.0025 
102 1 -0.0288462 -0.0375537 0.00767551 0 0 0 -0.0111067 0.0649191 0.149963 -0.026185 -0.0187311 0.00759876 2.94771 -48.3068 26.1372 0.0025 
16 1 -0.0180919 -0.0355468 0.00632833 0 0 0 -0.159375 -0.158288 -0.0138556 -0.0242591 -0.0277629 0.0479079 18.0454 -1.06896 -6.50599 0.0025 
197 1 -0.00483973 -0.0383643 0.00711606 0 0 0 -0.148847 0.0294135 0.146145 -0.00317363 -0.00752495 -0.00259908 2.67546 14.9636 -19.6359 0.0025 
70 1 0.000353272 -0.0378251 0.0068496 0 0 0 0.100053 -0.0105931 0.137713 -0.0382878 0.0260896 -0.0237697 -45.7397 -0.0830688 -45.4331 0.0025 
332 1 0.0224708 -0.0381583 0.00653266 0 0 0 -0.00507642 0.073882 -0.069095 0.0120811 -0.0165527 0.0368714 -6.166 6.68367 13.3713 0.0025 
348 1 -0.0248753 -0.0349729 0.00618803 0 0 0 -0.108148 -0.0856716 0.174035 0.026185 0.0187311 -0.0108091 -9.06556 -11.1818 54.8777 0.0025 
378 1 -0.0122961 -0.0334618 0.00709952 0 0 0 -0.0365789 -0.0626467 0.140985 0 0 -0.00160516 -3.30143 -13.29 -19.5198 0.0025 
667 1 -0.00271543 -0.0338781 0.00759132 0 0 0 0.191048 -0.23534 -0.0212809 0.0785321 -0.0270655 -0.0389439 37.5193 -17.6099 20.1988 0.0025 
160 1 0.00277952 -0.0327079 0.00678151 0 0 0 0.0468517 0.101581 0.106276 0.000664987 0.000507692 -9.89999e-05 3.69958 -11.967 41.3208 0.0025 
170 1 0.00757215 -0.0347943 0.00568768 0 0 0 -0.0398121 -0.280442 0.18048 -0.12119 -0.0175824 -0.0364173 -38.9907 4.67794 -12.5189 0.0025 
357 1 0.0122288 -0.0338697 0.00693604 0 0 0 -0.0640873 0.0958404 0.0106973 0.0866068 0.00100428 0.0310633 -5.97417 -44.9691 -29.8887 0.0025 
262 1 0.0220372 -0.0329999 0.00698665 0 0 0 0.0508595 -0.18572 0.135851 0 0 -0.00160516 -24.0025 7.60881 34.4708 0.0025 
314 1 -0.0288591 -0.0317419 0.00652751 0 0 0 -0.0526992 -0.063766 -0.0259972 0.0302487 0.0131424 -0.00434684 -21.2635 4.43936 -32.8923 0.0025 
182 1 -0.0212445 -0.0316503 0.00359897 0 0 0 -0.132658 0.257201 -0.0833305 0.0492635 -0.0153179 0.009513 27.7155 -23.1011 -22.8846 0.0025 
152 1 -0.0168245 -0.0306807 0.00683879 0 0 0 0.0567958 -0.0839846 -0.0280969 0.00119851 -0.00446701 0.00652875 -3.99496 -28.8431 -31.282 0.0025 
265 1 -0.0129858 -0.0295292 0.00375585 0 0 0 0.0449863 0.0426099 -0.154558 0.0933945 0.023336 0.0323229 25.7332 32.5684 38.0506 0.0025 
115 1 -0.00514994 -0.029737 0.00369448 0 0 0 -0.0926317 0.0481714 -0.0674003 -0.00404733 0.0232496 0.00538225 -13.1853 60.4906 21.2907 0.0025 
441 1 0.00932822 -0.0281266 0.00601928 0 0 0 -0.0243274 0.114209 -0.0541929 0 0 -0.00160516 -15.7924 -27.2453 -2.24129 0.0025 
320 1 0.0164554 -0.0312888 0.0071949 0 0 0 -0.164853 0.0923571 0.145309 -0.0114161 -0.0217411 -0.0916973 0.525923 6.65847 35.6279 0.0025 
288 1 -0.0162073 -0.0256932 0.00678156 0 0 0 0.124328 0.0914678 -0.127238 -0.0671253 0.0220785 -0.0105695 27.0591 -18.3242 54.4828 0.0025 
164 1 -0.00235633 -0.0258051 0.00522733 0 0 0 0.199496 -0.184597 0.129569 -0.090623 0.0223381 -0.00714412 23.5457 3.65694 -5.98612 0.0025 
76 1 0.0038117 -0.0276317 0.00644685 0 0 0 0.144634 0.0104962 -0.0276598 0.0134882 0.00542186 -0.00910706 -34.0865 -31.1939 -6.34384 0.0025 
323 1 0.0208433 -0.0276739 0.00686388 0 0 0 -0.0769122 0.174107 -0.169765 0.0185949 0.0207581 0.0399703 -22.8685 20.5103 -2.4572 0.0025 
435 1 0.0309182 -0.0244923 0.00680455 0 0 0 -0.136712 -0.15558 0.0244463 -0.00515921 0.00281854 -0.00515163 -20.2455 26.6548 -31.125 0.0025 
192 1 -0.0270728 -0.0228608 0.00667948 0 0 0 0.043199 0.0236607 0.216443 0.000434952 0.00053993 -0.00168373 43.0034 -31.5132 34.2515 0.0025 
165 1 -0.00804673 -0.0220002 0.00696107 0 0 0 -0.0367884 0.0645529 -0.0847022 0.000346094 -0.000488057 -0.00628488 38.8477 -2.5067 -20.8859 0.0025 
383 1 0.00498815 -0.0224818 0.00489888 0 0 0 0.0402358 -0.00473443 -0.00891819 0 0 -0.00160516 13.5409 16.2733 5.85756 0.0025 
219 1 0.010122 -0.0225982 0.00740037 0 0 0 0.0244492 0.23985 0.060163 0.0015982 0.0029269 0.00696372 -3.65987 -0.169015 -19.4962 0.0025 
391 1 0.0261843 -0.0224208 0.00717479 0 0 0 0.0981823 0.125084 -0.103975 -0.00716518 -0.0666047 -0.0189221 47.0994 8.94688 -14.1198 0.0025 
149 1 0.029122 -0.020595 0.00309825 0 0 0 -0.0519152 0.0734567 -0.245159 0 0 -0.00160516 -39.1735 -10.079 73.9264 0.0025 
132 1 0.0356348 -0.0247131 0.00466995 0 0 0 0.0742865 0.0532107 0.0102708 0.0196307 0.0207769 0.0100657 1.92752 -24.5853 -9.8082 0.0025 
282 1 0.0420713 -0.021768 0.00698132 0 0 0 -0.114053 0.180303 0.129411 0.00119563 0.00176511 -0.00213283 35.475 -45.0172 -19.5874 0.0025 
382 1 -0.033 -0.0201364 0.00552057 0 0 0 -0.0171093 0.0519036 -0.136285 -0.0116128 0.0116106 0.00795577 10.9047 -9.53576 -39.3969 0.0025 
120 1 -0.0227199 -0.0187997 0.0068964 0 0 0 -0.272394 -0.0438961 -0.0132663 0 0 -0.00160516 8.43358 -21.2766 -12.5106 0.0025 
201 1 -0.0180705 -0.0207899 0.0072629 0 0 0 0.0107466 -0.0173828 0.113642 -0.0256534 0.00429135 -0.000623561 -20.0324 11.2241 34.3129 0.0025 
41 1 -0.00275707 -0.019954 0.00628445 0 0 0 -0.0632157 -0.0141335 -0.0406942 -0.00106913 0.000606569 -0.000305525 7.67604 4.29723 2.9899 0.0025 
353 1 0.00180928 -0.0178687 0.00710088 0 0 0 -0.0869302 0.0252815 -0.0671537 -0.0120638 -0.00266512 -0.00531246 28.0271 44.7956 -22.7075 0.0025 
121 1 -0.0395624 -0.0176268 0.00480535 0 0 0 0.256844 0.0487887 -0.118902 -0.00743344 0.0109048 0.0056314 23.7437 3.8543 -20.6245 0.0025 
361 1 -0.0324245 -0.015404 0.00702774 0 0 0 0.188994 0.0795669 -0.403204 8.09624e-06 8.08134e-05 -0.00157533 36.0522 -39.7041 14.5533 0.0025 
23 1 -0.0101654 -0.0173474 0.00619368 0 0 0 -0.077841 0.0307671 -0.0431478 -0.0193146 0.00205034 -0.0178155 26.5502 -54.0801 -52.7211 0.0025 
321 1 -0.00247818 -0.0145444 0.00675531 0 0 0 0.00856228 0.0365451 0.0704791 0 0 -0.00160516 28.9668 2.4566 -6.27732 0.0025 
340 1 0.0119251 -0.0172722 0.00775463 0 0 0 -0.0679796 -0.183642 0.194111 -0.00671133 0.00908287 -0.00229149 -3.84762 33.6147 10.2795 0.0025 
54 1 0.0166169 -0.0160362 0.0058751 0 0 0 0.0249056 -0.0201123 0.0684648 0 0 -0.00160516 17.5943 -15.966 22.3345 0.0025 
140 1 0.0214281 -0.0173321 0.00679695 0 0 0 0.322093 0.179328 0.0404638 0.0187341 0.00543842 -0.0284391 34.2338 -10.1081 -1.76296 0.0025 
1 1 0.0363506 -0.0163682 0.00650206 0 0 0 0.156762 0.182094 -0.109918 0 0 -0.00160516 49.2888 -47.5352 30.1181 0.0025 
104 1 0.045109 -0.0146848 0.00414056 0 0 0 -0.100944 0.0642201 0.0127347 0.02812 -0.0888703 -0.00637074 -5.17795 11.8381 34.1902 0.0025 
336 1 -0.0415127 -0.0110116 0.00656643 0 0 0 0.0322596 0.00094213 0.0480562 0 0 -0.00160516 19.4521 18.1484 -21.8069 0.0025 
436 1 -0.0262673 -0.0115635 0.00695233 0 0 0 0.0510635 -0.165594 0.246407 -0.00045699 0.000162879 -0.00076537 25.2024 13.5244 -50.1735 0.0025 
236 1 -0.0213942 -0.0135961 0.00655749 0 0 0 0.0885086 -0.0791426 -0.0828399 -0.0360533 0.0628657 -0.0835989 -2.37131 34.816 -25.9112 0.0025 
397 1 -0.0125983 -0.0118617 0.00720599 0 0 0 -0.130463 -0.00922838 0.165131 0.0175146 -0.00759259 -0.00130229 20.7317 -15.5958 14.0887 0.0025 
442 1 0.00269713 -0.0128612 0.00695334 0 0 0 -0.0146904 -0.00172793 -0.063756 0 0 -0.00160516 -28.8051 5.38172 28.1423 0.0025 
384 1 0.0127864 -0.0119322 0.00457537 0 0 0 -0.0835209 -0.0410344 0.0490962 0.0683078 -0.079347 0.0332918 46.1424 -52.4904 -11.1871 0.0025 
153 1 0.031166 -0.0141786 0.00744579 0 0 0 -0.0238821 -0.0709365 0.116816 0 0 -0.00160516 -5.45329 -36.636 24.5476 0.0025 
59 1 0.0395133 -0.0122034 0.00629391 0 0 0 -0.0217793 0.0394663 0.199861 -0.0352969 -0.0155585 0.036489 15.3177 -2.0091 -9.58176 0.0025 
136 1 -0.0462669 -0.00870172 0.00713947 0 0 0 0.00956635 -0.0808638 0.0771316 0 0 -0.00160516 4.19606 -7.92077 -11.4195 0.0025 
270 1 -0.0319387 -0.0103776 0.00748022 0 0 0 -0.0621668 0.0769428 0.019628 0.0334918 -0.0890456 -9.28537e-05 -7.17892 -1.59021 2.08444 0.0025 
258 1 -0.0170576 -0.00965869 0.00710764 0 0 0 -0.0730644 0.0231756 0.102436 -0.0175146 0.00759259 -0.00190802 -13.9951 -10.3321 31.4028 0.0025 
190 1 -0.00899089 -0.00887083 0.00314874 0 0 0 -0.0853665 -0.0548482 -0.0138948 -0.017723 -0.0120535 -0.000401959 5.24655 9.06804 -5.94075 0.0025 
65 1 -0.00286361 -0.00906517 0.0062404 0 0 0 0.258843 0.0611278 0.190658 0 0 -0.00160516 13.3131 -53.5865 -37.7022 0.0025 
38 1 0.00318817 -0.00639292 0.00712813 0 0 0 0.0620914 0.13991 0.0627097 -0.0196129 -0.022023 -0.0358598 -23.0902 35.5766 12.088 0.0025 
401 1 0.00805665 -0.0115243 0.00720819 0 0 0 -0.0266153 -0.239878 0.0759291 0 0 -0.00160516 2.09643 31.1225 -9.9806 0.0025 
191 1 0.0136505 -0.00701239 0.00623187 0 0 0 -0.0946183 0.0339796 0.0153083 0 0 -0.00160516 -42.7038 -1.12223 1.09879 0.0025 
338 1 0.0222993 -0.00873394 0.00341737 0 0 0 -0.0749603 0.0834694 -0.179955 -0.0130001 0.0233218 0.00421375 -46.0052 25.8415 -24.1384 0.0025 
124 1 0.0349484 -0.0100058 0.00675482 0 0 0 -0.0284767 0.0490704 -0.165262 0 0 -0.00160516 -4.46849 31.3792 7.10592 0.0025 
381 1 -0.0472504 -0.00373668 0.00635492 0 0 0 0.0805873 -0.000689768 0.0358288 -0.00314858 0.0183196 0.0208894 7.63408 -14.7295 10.0763 0.0025 
27 1 -0.0335258 -0.00571591 0.00759251 0 0 0 -0.128582 0.0205775 0.092598 -0.0334918 0.0890456 -0.00311746 28.9435 2.80701 37.8043 0.0025 
419 1 -0.0283595 -0.00619254 0.0070787 0 0 0 0.129023 -0.202813 0.066953 -0.0385646 -0.0294361 0.00404054 -31.2338 16.3648 4.42537 0.0025 
157 1 -0.0207119 -0.00620812 0.0061047 0 0 0 -0.0517498 -0.0504412 -0.00858785 0.0501267 -0.000379455 0.0326251 -4.37044 -15.6603 -4.82512 0.0025 
1021 1 -0.00140191 -0.00431358 0.00717804 0 0 0 -0.0063809 0.075349 0.13651 0.0207033 -0.0122781 -0.0143023 -25.6618 -12.9793 -0.949452 0.0025 
287 1 0.00875021 -0.00654583 0.00760543 0 0 0 -0.01786 -0.131773 0.0893441 0 0 -0.00160516 10.337 -4.59147 -31.122 0.0025 
151 1 0.0191832 -0.00640146 0.0072378 0 0 0 0.0288263 0.176823 0.019182 0.0233635 0.00726624 -0.036922 -12.955 33.8111 13.9803 0.0025 
254 1 0.026897 -0.00647177 0.0061474 0 0 0 0.0854938 -0.154699 -0.0120461 -0.0571776 -0.0516591 0.0112058 2.58382 -33.4873 -31.2659 0.0025 
284 1 0.0317929 -0.00592727 0.00680519 0 0 0 -0.0577871 0.022308 -0.0345523 0.0364137 0.0249115 -0.00882477 23.5399 -10.1945 6.02117 0.0025 
290 1 0.0368643 -0.00514755 0.00662519 0 0 0 0.0436935 -0.0397065 0.204987 0.0169722 -0.0199233 0.0157961 -40.3108 -4.15156 -4.39614 0.0025 
122 1 0.0423041 -0.00656938 0.00554886 0 0 0 -0.0336139 -0.0298087 0.0151389 0 0 -0.00160516 -13.6809 -21.8225 -19.5998 0.0025 
1100 1 0.0472742 -0.00511593 0.00725896 0 0 0 0.0522933 0.0678672 -0.0514336 -0.0731136 -0.0201159 -0.0334793 -5.26356 -0.121863 -15.2143 0.0025 
42 1 -0.0390931 -0.00280526 0.0066501 0 0 0 -0.0738291 0.0125397 -0.0290586 0 0 -0.00160516 -69.8024 -1.06341 38.6996 0.0025 
1116 1 -0.0245779 -0.00308474 0.00633458 0 0 0 0.132074 0.0387535 -0.0931902 0.0221677 0.0258547 -0.00405318 11.6449 -28.6849 20.9267 0.0025 