ITEM: TIMESTEP
1600
ITEM: NUMBER OF ATOMS
1800
ITEM: BOX BOUNDS mm mm mm
-0.05 0.05
-0.05 0.05
0 0.15
ITEM: ATOMS id type x y z ix iy iz vx vy vz fx fy fz omegax omegay omegaz radius 
103 1 -0.0126913 -0.0387839 0.0049974 0 0 0 -0.191894 -0.0337594 0.525682 0 0 -0.00160516 -1.42804 8.58896 -4.13746 0.0025 
95 1 -0.0246417 -0.0288167 0.00271651 0 0 0 0.0607478 0.116253 0.542171 0 0 -0.00160516 -7.4511 3.89355 6.69734e-14 0.0025 
220 1 0.0172419 -0.0300649 0.00626753 0 0 0 0 0 0.475363 0 0 -0.00160516 0 0 0 0.0025 
421 1 -0.0155406 -0.0273554 0.00357777 0 0 0 0.0166935 0.38124 -0.1088 0.309035 0.0546522 -0.285141 35.7536 19.9636 18.4643 0.0025 
126 1 0.00481496 -0.0282898 0.00532885 0 0 0 0.0259565 -0.522652 0.0624083 0.00199007 -0.0400714 -0.03287 -33.4584 -1.66165 2.72162e-15 0.0025 
66 1 0.0240469 -0.0246713 0.0053123 0 0 0 -0.115448 -0.310877 -0.389139 0 0 -0.00160516 -40.8511 17.2911 2.40234 0.0025 
294 1 -0.0207426 -0.0242777 0.00341922 0 0 0 -0.168704 -0.0391725 0.316694 0 0 -0.00160516 -4.2888 -1.3437 -4.53656 0.0025 
380 1 -0.0140971 -0.0211427 0.0023943 0 0 0 -0.0586438 -0.0206592 0.527694 0.0106934 0.00145167 0.214225 8.25968 -22.2272 -13.5807 0.0025 
231 1 -0.0405033 -0.0157202 0.00462657 0 0 0 -0.0734182 -0.0280699 0.484467 0 0 -0.00160516 18.0192 -45.6223 -2.07622 0.0025 
405 1 0.00251636 -0.0145098 0.00343593 0 0 0 0.229567 -0.102567 0.383018 0 0 -0.00160516 25.1102 61.0139 -2.18887 0.0025 
142 1 0.0160182 -0.0156819 0.00262309 0 0 0 -0.0917178 -0.0807968 0.500778 0 0 -0.00160516 -9.35388 16.4076 -0.0832497 0.0025 
104 1 0.0313397 -0.0146362 0.00248398 0 0 0 0.0787809 -0.346945 0.265562 -0.000148127 0.000468131 0.00821499 38.1299 -0.3766 -7.22295 0.0025 
105 1 -0.0424198 -0.00813175 0.00427453 0 0 0 -0.332204 -0.00499599 0.27566 0 0 -0.00160516 -45.7692 -40.0389 -7.23818 0.0025 
238 1 -0.0313447 -0.0101183 0.00411687 0 0 0 -0.0674588 0.0789492 0.498306 0 0 -0.00160516 -32.1995 -2.66991 -5.95747 0.0025 
331 1 -0.0194449 -0.0110488 0.00242528 0 0 0 0.00668381 -0.294723 -0.165074 -0.000981252 0.00684648 0.136724 -65.4399 -23.8135 16.988 0.0025 
20 1 0.0281599 -0.0076332 0.002479 0 0 0 -0.0578599 -0.346043 -0.532352 0.000612666 0.00124869 0.0262127 -18.8423 54.1919 35.2464 0.0025 
252 1 -0.0219734 -0.00298985 0.00330384 0 0 0 -0.0709925 0.256352 0.201623 0 0 -0.00160516 0.809297 -11.4535 -10.6818 0.0025 
328 1 -0.0148565 -0.00520634 0.00455692 0 0 0 0.194742 0.0607464 0.333094 0 0 -0.00160516 20.1255 51.8198 -9.97725 0.0025 
117 1 -0.00683449 -0.00530777 0.00447537 0 0 0 -0.0557214 0.201696 0.51772 -0.0167227 0.0403376 -0.00606412 14.6543 15.1427 3.00546 0.0025 
250 1 -0.00243043 -0.000835004 0.0028144 0 0 0 -0.387747 0.559047 -0.126938 0 0 -0.00160516 41.3724 23.0327 -6.50997 0.0025 
425 1 0.0361322 -0.00624191 0.00525797 0 0 0 -0.430077 -0.234372 -0.294013 0 0 -0.00160516 -21.6989 39.8178 2.15981e-14 0.0025 
154 1 0.0110226 -0.00129297 0.00556974 0 0 0 -0.1713 0.631454 0.297031 0 0 -0.00160516 25.7224 3.59383 -27.5541 0.0025 
255 1 -0.00212722 -0.0423388 0.00631734 0 0 0 0.0576707 -0.25036 -0.546808 0 0 -0.00160516 -45.5296 -10.7089 0.0621791 0.0025 
189 1 0.00259112 -0.0432292 0.00381161 0 0 0 -0.412572 -0.2113 -0.0569769 0 0 -0.00160516 -13.815 26.9743 -2.96857e-14 0.0025 
85 1 -0.0073562 -0.0387986 0.00302133 0 0 0 0.0302643 -0.384937 -0.327551 0 0 -0.00160516 -41.0065 23.8675 -4.13746 0.0025 
241 1 0.00404669 -0.0380527 0.0024087 0 0 0 0.126586 -0.246213 0.59729 -0.0038396 0.00758093 0.168351 69.6407 36.0435 -5.73942 0.0025 
409 1 0.0140011 -0.0372312 0.00500956 0 0 0 0.122944 0.126406 -0.169404 0 0 -0.00160516 -18.6888 41.2102 -2.77047 0.0025 
186 1 0.0189024 -0.0360623 0.00231635 0 0 0 0.264012 0.0775569 -0.197285 -0.0252553 -0.00723588 0.523823 -12.0041 39.1299 -2.77047 0.0025 
37 1 -0.0210675 -0.0329056 0.00406711 0 0 0 0 0 0.564428 0 0 -0.00160516 0 0 0 0.0025 
389 1 0.0261093 -0.0331759 0.00268973 0 0 0 0 0 -0.656911 0 0 -0.00160516 0 0 0 0.0025 
18 1 -0.0104319 -0.031903 0.00432925 0 0 0 0.365663 -0.322314 -0.350013 0 0 -0.00160516 18.5919 21.0924 -5.32992e-15 0.0025 
257 1 0.00211005 -0.033033 0.00403709 0 0 0 0.233123 0.0157896 -0.136383 0 0 -0.00160516 -7.63532 -21.2392 -5.73942 0.0025 
354 1 -0.00655688 -0.0283397 0.00259297 0 0 0 -0.00844466 -0.0723002 0.579429 0 0 -0.00160516 47.4486 -6.77484 4.96176 0.0025 
141 1 -0.00248587 -0.0259513 0.00451868 0 0 0 -0.050648 -0.182527 -0.399139 0.00211042 0.0051877 -0.0145753 -45.6608 -1.78383 -7.15401 0.0025 
307 1 0.0101324 -0.0254939 0.00371949 0 0 0 0.198268 -0.241163 0.523114 0 0 -0.00160516 63.433 66.576 2.89488 0.0025 
179 1 0.017426 -0.0233992 0.00646047 0 0 0 0.0929057 -0.322656 0.416683 0 0 -0.00160516 -5.54276 -0.900041 -4.60876 0.0025 
309 1 0.0300235 -0.0237942 0.00601896 0 0 0 -0.297047 -0.307791 -0.185827 0 0 -0.00160516 -13.9183 28.265 -10.6611 0.0025 
260 1 -0.0356255 -0.0211932 0.00816602 0 0 0 -0.118783 -0.0762826 0.284735 0 0 -0.00160516 -1.92436 5.88965 -3.60457 0.0025 
10 1 -0.0285095 -0.0211939 0.00498406 0 0 0 -0.0393829 0.0798821 -0.536565 0 0 -0.00160516 22.7641 35.2771 -5.50041 0.0025 
15 1 -0.0183779 -0.0183726 0.00317067 0 0 0 0.111407 0.36195 0.513752 0 0 -0.00160516 -70.751 22.3263 -4.53656 0.0025 
225 1 0.00310451 -0.02248 0.00249561 0 0 0 -0.335666 -0.237609 0.435569 0.000103367 5.43845e-05 -0.00394117 38.7201 -27.1727 -26.2702 0.0025 
134 1 0.021475 -0.0202875 0.00319466 0 0 0 -0.267964 -0.306717 -0.660474 0 0 -0.00160516 11.7172 -10.3857 12.4392 0.0025 
322 1 0.0373081 -0.0191997 0.00406453 0 0 0 0 0 0.564538 0 0 -0.00160516 0 0 0 0.0025 
102 1 -0.0343308 -0.017337 0.00384965 0 0 0 -0.302254 -0.228633 -0.537806 0 0 -0.00160516 -35.5634 25.7691 38.8075 0.0025 
445 1 -0.0139272 -0.0145704 0.0041911 0 0 0 0 0 0.559998 0 0 -0.00160516 0 0 0 0.0025 
218 1 -0.00597215 -0.0206205 0.00240308 0 0 0 -0.128373 -0.518559 -0.291869 0.00237642 0.0100083 0.204126 -42.8504 8.03661 2.72998 0.0025 
32 1 0.007243 -0.0173976 0.00387298 0 0 0 0.0360778 -0.0914961 -0.358781 0 0 -0.00160516 11.6848 6.82647 -11.6199 0.0025 
448 1 0.0244269 -0.0154263 0.0048391 0 0 0 -0.430432 -0.0757802 -0.175963 0 0 -0.00160516 27.8805 -36.8985 -0.00886356 0.0025 
222 1 -0.0048751 -0.00984973 0.00474211 0 0 0 0.347024 0.0456937 -0.40152 0.0167227 -0.0403376 0.00285381 8.25336 -50.7906 13.8275 0.0025 
122 1 0.036609 -0.0114931 0.00362498 0 0 0 0.430857 0.161707 0.419782 -0.0395364 -0.0758872 -0.355786 -23.5142 48.135 9.04491 0.0025 
347 1 -0.000224247 -0.00951324 0.00253303 0 0 0 0.0583827 0.132943 -0.44657 0 0 -0.00160516 -8.77167 -27.6387 32.5123 0.0025 
202 1 0.00922615 -0.00771979 0.00280887 0 0 0 0.217747 -0.0286363 -0.695882 0 0 -0.00160516 9.62793 -1.69233 -31.291 0.0025 
2 1 0.0238295 -0.0104775 0.00330142 0 0 0 0.0205375 0.31289 -0.297987 0 0 -0.00160516 -19.421 -28.5104 -22.9175 0.0025 
289 1 0.0414166 -0.00828382 0.00650436 0 0 0 0 0 0.463997 0 0 -0.00160516 0 0 0 0.0025 
246 1 -0.0389261 -0.00371723 0.00440563 0 0 0 0.403681 0.128125 -0.426442 0 0 -0.00160516 -18.3639 -40.1719 -7.23818 0.0025 
221 1 -0.0347989 -0.00567974 0.00654632 0 0 0 -0.263646 0.0646485 0.116855 0 0 -0.00160516 -6.13455 15.4804 9.3897 0.0025 
147 1 0.00439667 -0.00389697 0.00620028 0 0 0 -0.00503288 0.531518 -0.297407 0 0 -0.00160516 44.4929 37.3121 -30.4973 0.0025 
342 1 -0.0261939 -0.0030093 0.00762118 0 0 0 0 0 0.401654 0 0 -0.00160516 0 0 0 0.0025 
385 1 -0.0102176 -0.00248246 0.00837055 0 0 0 0.177758 0.09931 0.391143 0 0 -0.00160516 4.72454 -8.79758 1.18119 0.0025 
28 1 -0.00581887 -0.0331818 0.00956303 0 0 0 -0.0202326 0.0871307 0.141458 0 0 -0.00160516 -23.1817 6.26072 -0.18086 0.0025 
234 1 0.00826139 -0.0329134 0.00638679 0 0 0 0 0 -0.656911 0 0 -0.00160516 0 0 0 0.0025 
266 1 -0.0259393 -0.0311064 0.0102893 0 0 0 -0.296727 -0.291304 0.283985 0 0 -0.00160516 32.6219 -12.8048 5.66859 0.0025 
291 1 -0.0033312 -0.0275606 0.00914929 0 0 0 -0.408932 0.172877 0.228293 -0.00211042 -0.0051877 0.011365 -33.3221 -39.408 -16.2948 0.0025 
369 1 0.0282033 -0.0307152 0.00700573 0 0 0 0 0 -0.656911 0 0 -0.00160516 0 0 0 0.0025 
434 1 -0.0190263 -0.0282121 0.00676188 0 0 0 -0.00987225 -0.317894 -0.156982 -0.309035 -0.0546522 0.281931 42.318 -25.2482 3.11711 0.0025 
332 1 0.0202881 -0.0288296 0.0116718 0 0 0 -0.148119 -0.168251 0.26954 0 0 -0.00160516 34.4999 -30.3718 -1.14064e-14 0.0025 
433 1 -0.0105547 -0.0240992 0.00560641 0 0 0 0 0 -0.656911 0 0 -0.00160516 0 0 0 0.0025 
30 1 0.0131016 -0.0250689 0.0113143 0 0 0 0.275614 -0.0718815 0.252254 0 0 -0.00160516 11.6048 44.496 3.07978e-14 0.0025 
293 1 -0.0157188 -0.0180565 0.00747512 0 0 0 -0.301967 0.289267 -0.379188 -0.0109885 -0.00677119 -0.054878 -6.47892 25.6118 -17.9411 0.0025 
386 1 0.0281537 -0.0186092 0.00615305 0 0 0 0.152819 -0.069568 -0.391981 0 0 -0.00160516 -3.3361 11.9376 5.81203 0.0025 
336 1 -0.0244153 -0.0170916 0.00631587 0 0 0 0.270594 0.280251 -0.461283 0 0 -0.00160516 -15.3764 14.8465 -3.39206e-15 0.0025 
321 1 -0.00300156 -0.0149737 0.00912405 0 0 0 -0.219666 -0.251419 -0.387115 0 0 -0.00160516 -9.70944 9.14192 -15.6479 0.0025 
449 1 -0.0220379 -0.0109761 0.00710039 0 0 0 -0.463059 -0.0348473 0.322969 0 0 -0.00160516 12.1261 5.14424 14.7844 0.0025 
383 1 0.00578371 -0.0130909 0.00812029 0 0 0 -0.0674797 0.13432 -0.374128 0 0 -0.00160516 -15.1346 1.30536 -4.23161 0.0025 
140 1 0.0192863 -0.013488 0.00811849 0 0 0 0.444269 0.135008 0.0446807 0 0 -0.00160516 -23.9987 8.56352 7.57835 0.0025 
261 1 -0.0271758 -0.0100221 0.00719148 0 0 0 -0.290048 -0.0500954 -0.0647327 0 0 -0.00160516 33.583 21.3574 -3.09502 0.0025 
49 1 -0.016889 -0.0081448 0.00833228 0 0 0 0.110201 -0.0404823 0.440558 0 0 -0.00160516 -69.3898 16.154 -12.0732 0.0025 
158 1 -0.010019 -0.0107589 0.00471219 0 0 0 0.0813907 -0.0704215 -0.453404 0 0 -0.00160516 -7.7488 -2.73278 -33.4727 0.0025 
61 1 -0.00171427 -0.00710381 0.00874012 0 0 0 -0.0521941 0.510376 -0.146392 0 0 -0.00160516 -12.4136 -26.8598 5.19249 0.0025 
362 1 0.03122 -0.0113051 0.00653103 0 0 0 0.253402 -0.478804 -0.223727 0 0 -0.00160516 14.5296 22.3133 -18.0824 0.0025 
367 1 -0.0294041 -0.00581676 0.0102579 0 0 0 0.298761 0.306591 -0.0408014 0.0778408 0.0949086 -0.196911 -18.4803 23.5665 -1.20421 0.0025 
24 1 0.014426 -0.00548083 0.00657476 0 0 0 -0.0923368 -0.112869 -0.0103752 0 0 -0.00160516 2.26131 -19.9941 -13.9565 0.0025 
263 1 0.0234209 -0.00334627 0.00512079 0 0 0 -0.467303 0.36547 -0.322151 0 0 -0.00160516 -10.6759 -27.4379 15.1002 0.0025 
305 1 0.0313897 -0.00253626 0.00453114 0 0 0 0.258477 0.246319 -0.385163 0 0 -0.00160516 -6.25927 -4.14642 22.9413 0.0025 
150 1 -0.00302309 -0.0400266 0.0117609 0 0 0 -0.40668 0.322363 -0.0206184 0 0 -0.00160516 -36.3755 9.33087 -5.79316 0.0025 
101 1 0.0113238 -0.0379308 0.0097186 0 0 0 0 0 -0.656911 0 0 -0.00160516 0 0 0 0.0025 
413 1 -0.0223904 -0.0353284 0.00844191 0 0 0 0 0 -0.656911 0 0 -0.00160516 0 0 0 0.0025 
444 1 -0.0124731 -0.0353712 0.00975422 0 0 0 0 0 -0.656911 0 0 -0.00160516 0 0 0 0.0025 
438 1 -0.0149357 -0.0297191 0.00975292 0 0 0 0 0 -0.656911 0 0 -0.00160516 0 0 0 0.0025 
244 1 -0.0284087 -0.0259035 0.00848862 0 0 0 0.000589778 -0.564463 -0.164136 0 0 -0.00160516 33.959 2.97649 3.28699 0.0025 
365 1 -0.0221854 -0.0223561 0.00909314 0 0 0 0 0 -0.656911 0 0 -0.00160516 0 0 0 0.0025 
87 1 0.00461415 -0.0242464 0.0081705 0 0 0 -0.0259565 0.522652 -0.207983 -0.00199007 0.0400714 0.0296597 -33.4584 -1.66165 2.72162e-15 0.0025 
313 1 0.0255267 -0.0217379 0.00942516 0 0 0 0.232381 0.443704 0.110096 0 0 -0.00160516 -40.7141 17.1704 2.40234 0.0025 
339 1 0.0364821 -0.0227869 0.0092263 0 0 0 0.479912 0.0228106 -0.167034 0 0 -0.00160516 -1.58463 33.3391 -1.39239e-14 0.0025 
306 1 -0.0304827 -0.0190776 0.00996044 0 0 0 0.229979 -0.0860394 0.413317 0 0 -0.00160516 -8.69705 56.7216 10.2854 0.0025 
40 1 -0.00871204 -0.0191271 0.00893671 0 0 0 0 0 -0.656911 0 0 -0.00160516 0 0 0 0.0025 
205 1 0.0317765 -0.0190601 0.00995616 0 0 0 0 0 -0.656911 0 0 -0.00160516 0 0 0 0.0025 
7 1 0.0109088 -0.0154965 0.00809627 0 0 0 0 0 -0.656911 0 0 -0.00160516 0 0 0 0.0025 
187 1 -0.0208638 -0.013913 0.0132467 0 0 0 -0.101471 0.217193 -0.142204 0 0 -0.00160516 35.1748 29.7214 16.1809 0.0025 
80 1 0.0150007 -0.0113739 0.00978998 0 0 0 -0.126937 0.0740646 -0.579483 0 0 -0.00160516 -2.37521 -7.26328 3.05284 0.0025 
237 1 0.0272736 -0.0138203 0.010506 0 0 0 0 0 -0.656911 0 0 -0.00160516 0 0 0 0.0025 
292 1 -0.0413437 -0.00922315 0.00992509 0 0 0 0 0 -0.656911 0 0 -0.00160516 0 0 0 0.0025 
439 1 -0.0324654 -0.0105244 0.00978832 0 0 0 0 0 -0.656911 0 0 -0.00160516 0 0 0 0.0025 
22 1 -0.00608754 -0.0107797 0.00960886 0 0 0 -0.226672 -0.126949 -0.340712 0 0 -0.00160516 15.102 -15.2185 6.34107 0.0025 
21 1 0.00347371 -0.00809898 0.0103379 0 0 0 -0.0857678 -0.137943 -0.369225 -0.0614216 -0.0224256 -0.0520564 40.1012 -5.99121 12.9377 0.0025 
240 1 0.01005 -0.00896979 0.00793043 0 0 0 0.114577 -0.120733 -0.21024 0 0 -0.00160516 -8.18084 -21.5513 -3.72646 0.0025 
393 1 0.031089 -0.00768816 0.0101424 0 0 0 0.0118657 0.314587 -0.260128 0 0 -0.00160516 -22.3703 -8.01562 7.02404 0.0025 
47 1 0.0368922 -0.0104802 0.00833137 0 0 0 0.0168233 0.0312119 -0.510874 0.0395364 0.0758872 0.352575 -0.112932 -7.14888 1.54085 0.0025 
363 1 -0.018471 -0.00238354 0.00985639 0 0 0 -0.15945 0.691231 -0.085673 0 0 -0.00160516 -24.8012 4.67555 -10.95 0.0025 
408 1 0.0192459 -0.00471999 0.00812367 0 0 0 -0.105712 -0.291018 -0.676493 0 0 -0.00160516 14.3648 -5.17274 -0.688982 0.0025 
110 1 0.0387603 -0.0048097 0.00928928 0 0 0 0.430077 0.234372 0.144693 0 0 -0.00160516 -21.6989 39.8178 2.15981e-14 0.0025 
138 1 -0.0426737 -0.00321592 0.0110201 0 0 0 -0.307888 0.0755819 0.278293 0 0 -0.00160516 -11.3521 -46.2437 3.19531e-14 0.0025 
116 1 0.00154512 -0.0413126 0.0143164 0 0 0 0.34901 -0.0720027 -0.357799 0 0 -0.00160516 9.15413 20.0398 -5.85534 0.0025 
29 1 0.00856125 -0.0330203 0.0127571 0 0 0 0 0 -0.656911 0 0 -0.00160516 0 0 0 0.0025 
440 1 0.013863 -0.0295851 0.0137148 0 0 0 0 0 -0.656911 0 0 -0.00160516 0 0 0 0.0025 
113 1 -0.0220687 -0.0285596 0.012362 0 0 0 -0.105538 -0.0253085 0.269886 0 0 -0.00160516 -32.7904 -22.1959 -9.67864 0.0025 
378 1 -0.0115243 -0.027336 0.0136656 0 0 0 0 0 -0.656911 0 0 -0.00160516 0 0 0 0.0025 
70 1 0.00141603 -0.0277896 0.0120964 0 0 0 0.539945 0.161281 -0.394886 0.00717418 0.0210379 -0.0345723 15.6662 18.6363 -19.0568 0.0025 
373 1 0.00791938 -0.0270228 0.0119852 0 0 0 0 0 -0.656911 0 0 -0.00160516 0 0 0 0.0025 
280 1 0.0252263 -0.0281365 0.0141965 0 0 0 0 0 -0.656911 0 0 -0.00160516 0 0 0 0.0025 
132 1 0.0301906 -0.0254136 0.013804 0 0 0 0 0 -0.656911 0 0 -0.00160516 0 0 0 0.0025 
195 1 -0.0160487 -0.022862 0.0137725 0 0 0 0 0 -0.656911 0 0 -0.00160516 0 0 0 0.0025 
182 1 -0.0213421 -0.0195115 0.0145348 0 0 0 -0.0565555 -0.421686 -0.453059 0 0 -0.00160516 22.8892 -1.8149 2.59781 0.0025 
346 1 0.00948921 -0.019882 0.0121531 0 0 0 0 0 -0.656911 0 0 -0.00160516 0 0 0 0.0025 
74 1 -0.0264149 -0.0152394 0.0108984 0 0 0 0 0 -0.656911 0 0 -0.00160516 0 0 0 0.0025 
265 1 -0.0145566 -0.0176231 0.0122628 0 0 0 0.359536 -0.177933 -0.0883923 0.0109885 0.00677119 0.0516677 22.8419 30.422 2.49328 0.0025 
159 1 0.0166811 -0.0177695 0.0132078 0 0 0 0 0 -0.656911 0 0 -0.00160516 0 0 0 0.0025 
196 1 -0.0361499 -0.0130679 0.0132587 0 0 0 0 0 -0.656911 0 0 -0.00160516 0 0 0 0.0025 
65 1 0.000109895 -0.0118995 0.0118847 0 0 0 0.0553806 0.323773 -0.280037 0 0 -0.00160516 72.8183 2.97906 -23.6163 0.0025 
211 1 -0.0311859 -0.00796514 0.0142431 0 0 0 -0.096441 -0.118014 -0.405027 -0.0778408 -0.0949086 0.193701 10.6054 -9.69544 -0.481937 0.0025 
338 1 0.0199056 -0.0104199 0.0121335 0 0 0 0 0 -0.656911 0 0 -0.00160516 0 0 0 0.0025 
191 1 0.00724184 -0.00663659 0.0131624 0 0 0 0.184367 0.0661787 -0.501822 0.0614216 0.0224256 0.0488461 -6.33041 10.0301 3.2452 0.0025 
188 1 0.0184552 -0.00441697 0.0140733 0 0 0 0 0 -0.656911 0 0 -0.00160516 0 0 0 0.0025 
279 1 0.00936359 -0.0405973 0.0168921 0 0 0 0 0 -0.656911 0 0 -0.00160516 0 0 0 0.0025 
410 1 -0.00614919 -0.0372506 0.0155591 0 0 0 0 0 -0.656911 0 0 -0.00160516 0 0 0 0.0025 
243 1 0.0181354 -0.0367579 0.0148694 0 0 0 0 0 -0.656911 0 0 -0.00160516 0 0 0 0.0025 
60 1 0.00030049 -0.0304721 0.0161124 0 0 0 -0.0367659 -0.126033 -0.452917 -0.00717418 -0.0210379 0.031362 4.75696 -9.70023 -5.13515 0.0025 
11 1 -0.0235297 -0.0246558 0.0169492 0 0 0 0 0 -0.656911 0 0 -0.00160516 0 0 0 0.0025 
52 1 -0.00404292 -0.0221577 0.0163497 0 0 0 0 0 -0.656911 0 0 -0.00160516 0 0 0 0.0025 
424 1 0.0179657 -0.0223291 0.0166853 0 0 0 0 0 -0.656911 0 0 -0.00160516 0 0 0 0.0025 
78 1 -0.0303569 -0.021424 0.0176608 0 0 0 0 0 -0.656911 0 0 -0.00160516 0 0 0 0.0025 
13 1 0.0224426 -0.0210172 0.0144039 0 0 0 0 0 -0.656911 0 0 -0.00160516 0 0 0 0.0025 
326 1 -0.0103608 -0.0147519 0.015703 0 0 0 0 0 -0.656911 0 0 -0.00160516 0 0 0 0.0025 
12 1 0.00192813 -0.0155518 0.0147829 0 0 0 0.199824 -0.370072 -0.304392 0 0 -0.00160516 24.3088 8.21901 -5.23831 0.0025 
98 1 -0.0214395 -0.00931127 0.0165823 0 0 0 0 0 -0.656911 0 0 -0.00160516 0 0 0 0.0025 
99 1 0.0386482 -0.00761106 0.0172449 0 0 0 0 0 -0.656911 0 0 -0.00160516 0 0 0 0.0025 
136 1 -0.0410007 -0.00670882 0.0155252 0 0 0 0 0 -0.656911 0 0 -0.00160516 0 0 0 0.0025 
38 1 0.0137911 -0.00401795 0.0162192 0 0 0 0 0 -0.656911 0 0 -0.00160516 0 0 0 0.0025 
92 1 0.0236924 -0.00381721 0.0144714 0 0 0 0 0 -0.656911 0 0 -0.00160516 0 0 0 0.0025 
426 1 0.0276013 -0.0048372 0.0176917 0 0 0 0 0 -0.656911 0 0 -0.00160516 0 0 0 0.0025 
376 1 0.041958 -0.00366984 0.0174284 0 0 0 0 0 -0.656911 0 0 -0.00160516 0 0 0 0.0025 
42 1 -0.0249141 -0.00287206 0.0145345 0 0 0 0 0 -0.656911 0 0 -0.00160516 0 0 0 0.0025 
184 1 -0.0049938 -0.00290683 0.0157285 0 0 0 0 0 -0.656911 0 0 -0.00160516 0 0 0 0.0025 
217 1 -0.0103315 -0.0379733 0.0197757 0 0 0 0 0 -0.656911 0 0 -0.00160516 0 0 0 0.0025 
416 1 -0.00115319 -0.0383214 0.0206649 0 0 0 0 0 -0.656911 0 0 -0.00160516 0 0 0 0.0025 
82 1 -0.0242911 -0.032854 0.0213167 0 0 0 0 0 -0.656911 0 0 -0.00160516 0 0 0 0.0025 
230 1 0.00571771 -0.0337403 0.0190732 0 0 0 0 0 -0.656911 0 0 -0.00160516 0 0 0 0.0025 
286 1 -0.0173558 -0.0267388 0.017875 0 0 0 0 0 -0.656911 0 0 -0.00160516 0 0 0 0.0025 
374 1 -0.00773225 -0.0204601 0.0198381 0 0 0 0 0 -0.656911 0 0 -0.00160516 0 0 0 0.0025 
109 1 0.0354925 -0.0212821 0.0185272 0 0 0 0 0 -0.656911 0 0 -0.00160516 0 0 0 0.0025 
372 1 -0.0325516 -0.0147652 0.018339 0 0 0 0 0 -0.656911 0 0 -0.00160516 0 0 0 0.0025 
6 1 -0.0202944 -0.0167009 0.0210549 0 0 0 0 0 -0.656911 0 0 -0.00160516 0 0 0 0.0025 
226 1 -0.00537013 -0.015381 0.0186024 0 0 0 0 0 -0.656911 0 0 -0.00160516 0 0 0 0.0025 
334 1 -4.75618e-05 -0.0171855 0.0213259 0 0 0 0 0 -0.656911 0 0 -0.00160516 0 0 0 0.0025 
366 1 0.0127349 -0.0148856 0.019123 0 0 0 0 0 -0.656911 0 0 -0.00160516 0 0 0 0.0025 
151 1 0.0202748 -0.0130436 0.0189163 0 0 0 0 0 -0.656911 0 0 -0.00160516 0 0 0 0.0025 
121 1 -0.029788 -0.0106767 0.0193177 0 0 0 0 0 -0.656911 0 0 -0.00160516 0 0 0 0.0025 
233 1 0.0160879 -0.00812775 0.0187967 0 0 0 0 0 -0.656911 0 0 -0.00160516 0 0 0 0.0025 
381 1 -0.0391747 -0.00681572 0.0210009 0 0 0 0 0 -0.656911 0 0 -0.00160516 0 0 0 0.0025 
251 1 -0.0131122 -0.00561098 0.0178055 0 0 0 0 0 -0.656911 0 0 -0.00160516 0 0 0 0.0025 
144 1 -0.00667555 -0.00546899 0.0202661 0 0 0 0 0 -0.656911 0 0 -0.00160516 0 0 0 0.0025 
287 1 0.00388436 -0.00527626 0.0190334 0 0 0 0 0 -0.656911 0 0 -0.00160516 0 0 0 0.0025 
368 1 0.0224126 -0.00293345 0.0198372 0 0 0 0 0 -0.656911 0 0 -0.00160516 0 0 0 0.0025 
271 1 -0.0168054 -0.0367308 0.0247308 0 0 0 0 0 -0.656911 0 0 -0.00160516 0 0 0 0.0025 
247 1 0.0120735 -0.0378634 0.0227118 0 0 0 0 0 -0.656911 0 0 -0.00160516 0 0 0 0.0025 
167 1 -0.00938307 -0.0331163 0.0239121 0 0 0 0 0 -0.656911 0 0 -0.00160516 0 0 0 0.0025 
417 1 0.00184617 -0.0332448 0.024583 0 0 0 0 0 -0.656911 0 0 -0.00160516 0 0 0 0.0025 
81 1 -0.0171314 -0.0311056 0.0217387 0 0 0 0 0 -0.656911 0 0 -0.00160516 0 0 0 0.0025 
86 1 -0.00364772 -0.0311055 0.0228698 0 0 0 0 0 -0.656911 0 0 -0.00160516 0 0 0 0.0025 
320 1 0.0120959 -0.0299141 0.0213747 0 0 0 0 0 -0.656911 0 0 -0.00160516 0 0 0 0.0025 
53 1 0.017092 -0.0299784 0.0216054 0 0 0 0 0 -0.656911 0 0 -0.00160516 0 0 0 0.0025 
358 1 0.028075 -0.0294776 0.0242805 0 0 0 0 0 -0.656911 0 0 -0.00160516 0 0 0 0.0025 
268 1 0.000754363 -0.0282112 0.0241092 0 0 0 0 0 -0.656911 0 0 -0.00160516 0 0 0 0.0025 
412 1 0.0212692 -0.0266878 0.0222045 0 0 0 0 0 -0.656911 0 0 -0.00160516 0 0 0 0.0025 
303 1 0.0333072 -0.02529 0.0245019 0 0 0 0 0 -0.656911 0 0 -0.00160516 0 0 0 0.0025 
314 1 -0.0234119 -0.0247011 0.0221597 0 0 0 0 0 -0.656911 0 0 -0.00160516 0 0 0 0.0025 
394 1 -0.0176179 -0.0244333 0.0239982 0 0 0 0 0 -0.656911 0 0 -0.00160516 0 0 0 0.0025 
165 1 -0.00816117 -0.0249126 0.0223431 0 0 0 0 0 -0.656911 0 0 -0.00160516 0 0 0 0.0025 
262 1 0.0164286 -0.02461 0.0231402 0 0 0 0 0 -0.656911 0 0 -0.00160516 0 0 0 0.0025 
58 1 -0.0307477 -0.0205671 0.0231555 0 0 0 0 0 -0.656911 0 0 -0.00160516 0 0 0 0.0025 
75 1 0.00927504 -0.0196648 0.0215937 0 0 0 0 0 -0.656911 0 0 -0.00160516 0 0 0 0.0025 
219 1 0.0132911 -0.0206687 0.024922 0 0 0 0 0 -0.656911 0 0 -0.00160516 0 0 0 0.0025 
402 1 -0.0381209 -0.0164224 0.0218987 0 0 0 0 0 -0.656911 0 0 -0.00160516 0 0 0 0.0025 
163 1 -0.0155176 -0.0148855 0.0217679 0 0 0 0 0 -0.656911 0 0 -0.00160516 0 0 0 0.0025 
23 1 -0.00788694 -0.0154263 0.0240072 0 0 0 0 0 -0.656911 0 0 -0.00160516 0 0 0 0.0025 
273 1 0.0067159 -0.0154665 0.0228612 0 0 0 0 0 -0.656911 0 0 -0.00160516 0 0 0 0.0025 
379 1 0.0170024 -0.0176005 0.0223414 0 0 0 0 0 -0.656911 0 0 -0.00160516 0 0 0 0.0025 
282 1 0.0331208 -0.0169471 0.023473 0 0 0 0 0 -0.656911 0 0 -0.00160516 0 0 0 0.0025 
442 1 -0.0040361 -0.00986258 0.0233641 0 0 0 0 0 -0.656911 0 0 -0.00160516 0 0 0 0.0025 
79 1 0.00130303 -0.00746357 0.0237215 0 0 0 0 0 -0.656911 0 0 -0.00160516 0 0 0 0.0025 
270 1 -0.0282024 -0.00609541 0.0231086 0 0 0 0 0 -0.656911 0 0 -0.00160516 0 0 0 0.0025 
258 1 -0.0225151 -0.00321988 0.0215782 0 0 0 0 0 -0.656911 0 0 -0.00160516 0 0 0 0.0025 
254 1 0.0280138 -0.00315551 0.024732 0 0 0 0 0 -0.656911 0 0 -0.00160516 0 0 0 0.0025 
16 1 -0.024382 -0.0315284 0.0281377 0 0 0 0 0 -0.656911 0 0 -0.00160516 0 0 0 0.0025 
403 1 0.0117425 -0.0289875 0.0284182 0 0 0 0 0 -0.656911 0 0 -0.00160516 0 0 0 0.0025 
194 1 0.0176441 -0.0250623 0.028054 0 0 0 0 0 -0.656911 0 0 -0.00160516 0 0 0 0.0025 
295 1 -0.00176722 -0.0233515 0.0256869 0 0 0 0 0 -0.656911 0 0 -0.00160516 0 0 0 0.0025 
201 1 -0.0155504 -0.0199324 0.0266528 0 0 0 0 0 -0.656911 0 0 -0.00160516 0 0 0 0.0025 
304 1 0.0215164 -0.0194478 0.0262257 0 0 0 0 0 -0.656911 0 0 -0.00160516 0 0 0 0.0025 
157 1 -0.0132417 -0.014473 0.026894 0 0 0 0 0 -0.656911 0 0 -0.00160516 0 0 0 0.0025 
382 1 -0.0241065 -0.01156 0.026741 0 0 0 0 0 -0.656911 0 0 -0.00160516 0 0 0 0.0025 
269 1 0.0154393 -0.0132093 0.026009 0 0 0 0 0 -0.656911 0 0 -0.00160516 0 0 0 0.0025 
3 1 -0.0407655 -0.0100928 0.025207 0 0 0 0 0 -0.656911 0 0 -0.00160516 0 0 0 0.0025 
397 1 -0.0115865 -0.00924135 0.0250469 0 0 0 0 0 -0.656911 0 0 -0.00160516 0 0 0 0.0025 
198 1 0.0152151 -0.00750632 0.026223 0 0 0 0 0 -0.656911 0 0 -0.00160516 0 0 0 0.0025 
337 1 0.0286556 -0.00980629 0.0253091 0 0 0 0 0 -0.656911 0 0 -0.00160516 0 0 0 0.0025 
312 1 -0.0364221 -0.00545267 0.0274883 0 0 0 0 0 -0.656911 0 0 -0.00160516 0 0 0 0.0025 
181 1 -0.0244217 -0.00549287 0.0264138 0 0 0 0 0 -0.656911 0 0 -0.00160516 0 0 0 0.0025 
278 1 -0.0083623 -0.00510196 0.0264522 0 0 0 0 0 -0.656911 0 0 -0.00160516 0 0 0 0.0025 
430 1 0.0321154 -0.00565084 0.0263316 0 0 0 0 0 -0.656911 0 0 -0.00160516 0 0 0 0.0025 
352 1 -0.0152367 -0.0394375 0.0302916 0 0 0 0 0 -0.656911 0 0 -0.00160516 0 0 0 0.0025 
73 1 -0.00729034 -0.0418445 0.0315634 0 0 0 0 0 -0.656911 0 0 -0.00160516 0 0 0 0.0025 
4 1 0.00454996 -0.0369502 0.0292986 0 0 0 0 0 -0.656911 0 0 -0.00160516 0 0 0 0.0025 
302 1 0.0123682 -0.0367172 0.0316056 0 0 0 0 0 -0.656911 0 0 -0.00160516 0 0 0 0.0025 
97 1 0.0218411 -0.035839 0.0308194 0 0 0 0 0 -0.656911 0 0 -0.00160516 0 0 0 0.0025 
8 1 -0.0150748 -0.0288508 0.0316216 0 0 0 0 0 -0.656911 0 0 -0.00160516 0 0 0 0.0025 
62 1 0.0226184 -0.0287599 0.0292914 0 0 0 0 0 -0.656911 0 0 -0.00160516 0 0 0 0.0025 
223 1 0.0309134 -0.0271079 0.028854 0 0 0 0 0 -0.656911 0 0 -0.00160516 0 0 0 0.0025 
145 1 -0.00806454 -0.0228854 0.0318382 0 0 0 0 0 -0.656911 0 0 -0.00160516 0 0 0 0.0025 
68 1 0.00046029 -0.0244571 0.0314743 0 0 0 0 0 -0.656911 0 0 -0.00160516 0 0 0 0.0025 
76 1 0.00627037 -0.0244571 0.0306648 0 0 0 0 0 -0.656911 0 0 -0.00160516 0 0 0 0.0025 
161 1 0.0234118 -0.0216485 0.0303802 0 0 0 0 0 -0.656911 0 0 -0.00160516 0 0 0 0.0025 
296 1 -0.0304478 -0.0206338 0.0291739 0 0 0 0 0 -0.656911 0 0 -0.00160516 0 0 0 0.0025 
345 1 -0.0208731 -0.0197314 0.0320631 0 0 0 0 0 -0.656911 0 0 -0.00160516 0 0 0 0.0025 
215 1 0.0170878 -0.0197797 0.0286152 0 0 0 0 0 -0.656911 0 0 -0.00160516 0 0 0 0.0025 
436 1 -0.0163797 -0.0143819 0.0308433 0 0 0 0 0 -0.656911 0 0 -0.00160516 0 0 0 0.0025 
57 1 0.0021908 -0.017129 0.0293865 0 0 0 0 0 -0.656911 0 0 -0.00160516 0 0 0 0.0025 
391 1 0.012076 -0.01707 0.031903 0 0 0 0 0 -0.656911 0 0 -0.00160516 0 0 0 0.0025 
149 1 0.0257473 -0.0151343 0.028839 0 0 0 0 0 -0.656911 0 0 -0.00160516 0 0 0 0.0025 
450 1 0.0329497 -0.0150325 0.030372 0 0 0 0 0 -0.656911 0 0 -0.00160516 0 0 0 0.0025 
404 1 -0.0300133 -0.0141115 0.0285728 0 0 0 0 0 -0.656911 0 0 -0.00160516 0 0 0 0.0025 
190 1 -0.00942885 -0.0128798 0.0312614 0 0 0 0 0 -0.656911 0 0 -0.00160516 0 0 0 0.0025 
9 1 -0.0206521 -0.007209 0.0296887 0 0 0 0 0 -0.656911 0 0 -0.00160516 0 0 0 0.0025 
119 1 -0.000705113 -0.0079185 0.0304445 0 0 0 0 0 -0.656911 0 0 -0.00160516 0 0 0 0.0025 
401 1 0.00351422 -0.0107138 0.0296182 0 0 0 0 0 -0.656911 0 0 -0.00160516 0 0 0 0.0025 
406 1 0.0310975 -0.00989713 0.0305946 0 0 0 0 0 -0.656911 0 0 -0.00160516 0 0 0 0.0025 
360 1 -0.00792866 -0.00596927 0.0314108 0 0 0 0 0 -0.656911 0 0 -0.00160516 0 0 0 0.0025 
207 1 0.00416297 -0.00400936 0.0318654 0 0 0 0 0 -0.656911 0 0 -0.00160516 0 0 0 0.0025 
91 1 0.0369779 -0.00380053 0.031674 0 0 0 0 0 -0.656911 0 0 -0.00160516 0 0 0 0.0025 
94 1 -0.0288499 -0.00288755 0.0306899 0 0 0 0 0 -0.656911 0 0 -0.00160516 0 0 0 0.0025 
344 1 0.00488696 -0.0399514 0.0355658 0 0 0 0 0 -0.656911 0 0 -0.00160516 0 0 0 0.0025 
212 1 0.0177821 -0.0359031 0.0343847 0 0 0 0 0 -0.656911 0 0 -0.00160516 0 0 0 0.0025 
411 1 -0.0183899 -0.0321922 0.0337667 0 0 0 0 0 -0.656911 0 0 -0.00160516 0 0 0 0.0025 
88 1 -0.00878326 -0.0326661 0.0328075 0 0 0 0 0 -0.656911 0 0 -0.00160516 0 0 0 0.0025 
115 1 0.00159461 -0.0321682 0.0322262 0 0 0 0 0 -0.656911 0 0 -0.00160516 0 0 0 0.0025 
316 1 -0.0278733 -0.0310061 0.0336054 0 0 0 0 0 -0.656911 0 0 -0.00160516 0 0 0 0.0025 
213 1 0.0164712 -0.0266338 0.0334783 0 0 0 0 0 -0.656911 0 0 -0.00160516 0 0 0 0.0025 
44 1 0.0277383 -0.0234289 0.0327493 0 0 0 0 0 -0.656911 0 0 -0.00160516 0 0 0 0.0025 
107 1 0.0334735 -0.0229308 0.035097 0 0 0 0 0 -0.656911 0 0 -0.00160516 0 0 0 0.0025 
229 1 -0.0305549 -0.0205854 0.0344221 0 0 0 0 0 -0.656911 0 0 -0.00160516 0 0 0 0.0025 
353 1 -0.00552571 -0.0178411 0.0331924 0 0 0 0 0 -0.656911 0 0 -0.00160516 0 0 0 0.0025 
370 1 0.0388239 -0.0157098 0.0332797 0 0 0 0 0 -0.656911 0 0 -0.00160516 0 0 0 0.0025 
55 1 -0.0337135 -0.0135999 0.0339453 0 0 0 0 0 -0.656911 0 0 -0.00160516 0 0 0 0.0025 
166 1 0.0246551 -0.0132545 0.0342982 0 0 0 0 0 -0.656911 0 0 -0.00160516 0 0 0 0.0025 
137 1 -0.026789 -0.00877786 0.0333261 0 0 0 0 0 -0.656911 0 0 -0.00160516 0 0 0 0.0025 
349 1 0.040956 -0.00890631 0.0352432 0 0 0 0 0 -0.656911 0 0 -0.00160516 0 0 0 0.0025 
283 1 0.0114882 -0.00625837 0.0334671 0 0 0 0 0 -0.656911 0 0 -0.00160516 0 0 0 0.0025 
93 1 0.0258234 -0.0053373 0.0341286 0 0 0 0 0 -0.656911 0 0 -0.00160516 0 0 0 0.0025 
414 1 -0.0361165 -0.00287136 0.0342892 0 0 0 0 0 -0.656911 0 0 -0.00160516 0 0 0 0.0025 
364 1 -0.0127852 -0.00284466 0.0321135 0 0 0 0 0 -0.656911 0 0 -0.00160516 0 0 0 0.0025 
90 1 0.0192425 -0.00286869 0.0340091 0 0 0 0 0 -0.656911 0 0 -0.00160516 0 0 0 0.0025 
429 1 -0.000377107 -0.0415176 0.0381489 0 0 0 0 0 -0.656911 0 0 -0.00160516 0 0 0 0.0025 
318 1 -0.0193758 -0.0368294 0.0373862 0 0 0 0 0 -0.656911 0 0 -0.00160516 0 0 0 0.0025 
106 1 -0.0122862 -0.0391829 0.0381717 0 0 0 0 0 -0.656911 0 0 -0.00160516 0 0 0 0.0025 
395 1 -0.0131313 -0.031263 0.0364589 0 0 0 0 0 -0.656911 0 0 -0.00160516 0 0 0 0.0025 
26 1 0.0305651 -0.0287248 0.0367899 0 0 0 0 0 -0.656911 0 0 -0.00160516 0 0 0 0.0025 
204 1 -0.0311556 -0.0284462 0.0391663 0 0 0 0 0 -0.656911 0 0 -0.00160516 0 0 0 0.0025 
133 1 -0.0238404 -0.0254824 0.0359075 0 0 0 0 0 -0.656911 0 0 -0.00160516 0 0 0 0.0025 
192 1 -0.0186946 -0.027884 0.0376317 0 0 0 0 0 -0.656911 0 0 -0.00160516 0 0 0 0.0025 
160 1 0.0112984 -0.026631 0.0374216 0 0 0 0 0 -0.656911 0 0 -0.00160516 0 0 0 0.0025 
288 1 -0.0175802 -0.0226389 0.0360882 0 0 0 0 0 -0.656911 0 0 -0.00160516 0 0 0 0.0025 
235 1 0.00501192 -0.024813 0.0382612 0 0 0 0 0 -0.656911 0 0 -0.00160516 0 0 0 0.0025 
173 1 -0.0341695 -0.0204808 0.0384296 0 0 0 0 0 -0.656911 0 0 -0.00160516 0 0 0 0.0025 
300 1 -0.012782 -0.0208985 0.0386916 0 0 0 0 0 -0.656911 0 0 -0.00160516 0 0 0 0.0025 
441 1 0.00850429 -0.0166923 0.0379578 0 0 0 0 0 -0.656911 0 0 -0.00160516 0 0 0 0.0025 
1 1 0.0328584 -0.0172277 0.0384478 0 0 0 0 0 -0.656911 0 0 -0.00160516 0 0 0 0.0025 
351 1 0.0051312 -0.0124377 0.0392098 0 0 0 0 0 -0.656911 0 0 -0.00160516 0 0 0 0.0025 
54 1 0.0198251 -0.012312 0.0359327 0 0 0 0 0 -0.656911 0 0 -0.00160516 0 0 0 0.0025 
275 1 -0.0393678 -0.00996918 0.0375354 0 0 0 0 0 -0.656911 0 0 -0.00160516 0 0 0 0.0025 
419 1 -0.0169893 -0.00726233 0.0359032 0 0 0 0 0 -0.656911 0 0 -0.00160516 0 0 0 0.0025 
317 1 -0.000748185 -0.00987548 0.0372349 0 0 0 0 0 -0.656911 0 0 -0.00160516 0 0 0 0.0025 
384 1 0.00665776 -0.00900535 0.0358615 0 0 0 0 0 -0.656911 0 0 -0.00160516 0 0 0 0.0025 
130 1 0.0338927 -0.00978446 0.0366939 0 0 0 0 0 -0.656911 0 0 -0.00160516 0 0 0 0.0025 
155 1 -0.0332252 -0.00543356 0.0378078 0 0 0 0 0 -0.656911 0 0 -0.00160516 0 0 0 0.0025 