ITEM: TIMESTEP
800
ITEM: NUMBER OF ATOMS
1800
ITEM: BOX BOUNDS mm mm mm
-0.05 0.05
-0.05 0.05
0 0.15
ITEM: ATOMS id type x y z ix iy iz vx vy vz fx fy fz omegax omegay omegaz radius 
1 1 0.0328584 -0.0172277 0.0433892 0 0 0 0 0 -0.578431 0 0 -0.00160516 0 0 0 0.0025 
2 1 0.02252 -0.00891134 0.00414565 0 0 0 0.401439 -0.196671 -0.0658256 -0.048256 -0.0146932 0.00165948 -13.7151 -29.0129 0.536343 0.0025 
3 1 -0.0407655 -0.0100928 0.0301483 0 0 0 0 0 -0.578431 0 0 -0.00160516 0 0 0 0.0025 
4 1 0.00454996 -0.0369502 0.0342399 0 0 0 0 0 -0.578431 0 0 -0.00160516 0 0 0 0.0025 
5 1 0.029045 -0.0226919 0.0591345 0 0 0 0 0 -0.578431 0 0 -0.00160516 0 0 0 0.0025 
6 1 -0.0202944 -0.0167009 0.0259963 0 0 0 0 0 -0.578431 0 0 -0.00160516 0 0 0 0.0025 
7 1 0.0109088 -0.0154965 0.0130376 0 0 0 0 0 -0.578431 0 0 -0.00160516 0 0 0 0.0025 
8 1 -0.0150748 -0.0288508 0.0365629 0 0 0 0 0 -0.578431 0 0 -0.00160516 0 0 0 0.0025 
9 1 -0.0206521 -0.007209 0.0346301 0 0 0 0 0 -0.578431 0 0 -0.00160516 0 0 0 0.0025 
10 1 -0.0281881 -0.0209991 0.00279395 0 0 0 0 0 0.53121 0 0 -0.00160516 0 0 0 0.0025 
11 1 -0.0235297 -0.0246558 0.0218906 0 0 0 0 0 -0.578431 0 0 -0.00160516 0 0 0 0.0025 
12 1 0.00185364 -0.0154133 0.0195911 0 0 0 0 0 -0.578431 0 0 -0.00160516 0 0 0 0.0025 
13 1 0.0224426 -0.0210172 0.0193453 0 0 0 0 0 -0.578431 0 0 -0.00160516 0 0 0 0.0025 
14 1 0.0330792 -0.00609402 0.0670023 0 0 0 0 0 -0.578431 0 0 -0.00160516 0 0 0 0.0025 
15 1 -0.0187526 -0.0195933 0.00598403 0 0 0 0 0 -0.578431 0 0 -0.00160516 0 0 0 0.0025 
16 1 -0.024382 -0.0315284 0.0330791 0 0 0 0 0 -0.578431 0 0 -0.00160516 0 0 0 0.0025 
17 1 -0.0171883 -0.0144962 0.0592827 0 0 0 0 0 -0.578431 0 0 -0.00160516 0 0 0 0.0025 
18 1 -0.0114391 -0.0310152 0.00842283 0 0 0 0 0 -0.578431 0 0 -0.00160516 0 0 0 0.0025 
19 1 0.0148554 -0.0153529 0.0595345 0 0 0 0 0 -0.578431 0 0 -0.00160516 0 0 0 0.0025 
20 1 0.0271952 -0.00736773 0.0036076 0 0 0 0.0223316 0.00672016 -0.579805 0.048256 0.0146932 -0.0048698 -0.26559 0.992279 0.536343 0.0025 
21 1 0.00336463 -0.00779074 0.0141167 0 0 0 0 0 -0.578431 0 0 -0.00160516 0 0 0 0.0025 
22 1 -0.00561588 -0.0105244 0.0141533 0 0 0 0 0 -0.578431 0 0 -0.00160516 0 0 0 0.0025 
23 1 -0.00788694 -0.0154263 0.0289486 0 0 0 0 0 -0.578431 0 0 -0.00160516 0 0 0 0.0025 
24 1 0.0173872 -0.00660974 0.00738861 0 0 0 -0.423771 0.18995 -0.0877959 0 0 -0.00160516 -13.4495 -30.0052 8.05622e-15 0.0025 
25 1 -0.0306947 -0.0253641 0.055465 0 0 0 0 0 -0.578431 0 0 -0.00160516 0 0 0 0.0025 
26 1 0.0305651 -0.0287248 0.0417313 0 0 0 0 0 -0.578431 0 0 -0.00160516 0 0 0 0.0025 
27 1 -0.0252514 -0.00268095 0.0477077 0 0 0 0 0 -0.578431 0 0 -0.00160516 0 0 0 0.0025 
28 1 -0.0059132 -0.0340567 0.0100274 0 0 0 0 0 -0.578431 0 0 -0.00160516 0 0 0 0.0025 
29 1 0.00856125 -0.0330203 0.0176985 0 0 0 0 0 -0.578431 0 0 -0.00160516 0 0 0 0.0025 
30 1 0.0110469 -0.024533 0.00947498 0 0 0 0 0 -0.578431 0 0 -0.00160516 0 0 0 0.0025 
31 1 0.00732024 -0.0218591 0.0614569 0 0 0 0 0 -0.578431 0 0 -0.00160516 0 0 0 0.0025 
32 1 0.00742501 -0.0159183 0.00633985 0 0 0 -0.16524 -0.274628 -0.0887153 0 0 -0.00160516 26.945 0.632194 9.44684 0.0025 
33 1 0.00509447 -0.00612366 0.0616484 0 0 0 0 0 -0.578431 0 0 -0.00160516 0 0 0 0.0025 
34 1 0.00148936 -0.0166465 0.0508699 0 0 0 0 0 -0.578431 0 0 -0.00160516 0 0 0 0.0025 
35 1 0.0045112 -0.00261152 0.0426331 0 0 0 0 0 -0.578431 0 0 -0.00160516 0 0 0 0.0025 
36 1 -0.0180767 -0.01021 0.0455045 0 0 0 0 0 -0.578431 0 0 -0.00160516 0 0 0 0.0025 
37 1 -0.0210675 -0.0329056 0.00518748 0 0 0 0 0 -0.578431 0 0 -0.00160516 0 0 0 0.0025 
38 1 0.0137911 -0.00401795 0.0211606 0 0 0 0 0 -0.578431 0 0 -0.00160516 0 0 0 0.0025 
39 1 -0.00349762 -0.029758 0.0502954 0 0 0 0 0 -0.578431 0 0 -0.00160516 0 0 0 0.0025 
40 1 -0.00871204 -0.0191271 0.0138781 0 0 0 0 0 -0.578431 0 0 -0.00160516 0 0 0 0.0025 
41 1 -0.000224834 -0.0218891 0.0454722 0 0 0 0 0 -0.578431 0 0 -0.00160516 0 0 0 0.0025 
42 1 -0.0249141 -0.00287206 0.0194758 0 0 0 0 0 -0.578431 0 0 -0.00160516 0 0 0 0.0025 
43 1 -0.000788695 -0.0353005 0.0457635 0 0 0 0 0 -0.578431 0 0 -0.00160516 0 0 0 0.0025 
44 1 0.0277383 -0.0234289 0.0376907 0 0 0 0 0 -0.578431 0 0 -0.00160516 0 0 0 0.0025 
45 1 0.0219648 -0.0316398 0.0613133 0 0 0 0 0 -0.578431 0 0 -0.00160516 0 0 0 0.0025 
46 1 -0.00723454 -0.0229837 0.0578264 0 0 0 0 0 -0.578431 0 0 -0.00160516 0 0 0 0.0025 
47 1 0.0368914 -0.0104816 0.0132659 0 0 0 0 0 -0.578431 0 0 -0.00160516 0 0 0 0.0025 
48 1 -0.0160069 -0.0318006 0.0580821 0 0 0 0 0 -0.578431 0 0 -0.00160516 0 0 0 0.0025 
49 1 -0.0161595 -0.00918321 0.0087874 0 0 0 0 0 -0.578431 0 0 -0.00160516 0 0 0 0.0025 
50 1 0.0136225 -0.025851 0.0667811 0 0 0 0 0 -0.578431 0 0 -0.00160516 0 0 0 0.0025 
51 1 0.0196699 -0.0114598 0.0639314 0 0 0 0 0 -0.578431 0 0 -0.00160516 0 0 0 0.0025 
52 1 -0.00404292 -0.0221577 0.021291 0 0 0 0 0 -0.578431 0 0 -0.00160516 0 0 0 0.0025 
53 1 0.017092 -0.0299784 0.0265468 0 0 0 0 0 -0.578431 0 0 -0.00160516 0 0 0 0.0025 
54 1 0.0198251 -0.012312 0.0408741 0 0 0 0 0 -0.578431 0 0 -0.00160516 0 0 0 0.0025 
55 1 -0.0337135 -0.0135999 0.0388867 0 0 0 0 0 -0.578431 0 0 -0.00160516 0 0 0 0.0025 
56 1 0.0233973 -0.00830079 0.051613 0 0 0 0 0 -0.578431 0 0 -0.00160516 0 0 0 0.0025 
57 1 0.0021908 -0.017129 0.0343279 0 0 0 0 0 -0.578431 0 0 -0.00160516 0 0 0 0.0025 
58 1 -0.0307477 -0.0205671 0.0280969 0 0 0 0 0 -0.578431 0 0 -0.00160516 0 0 0 0.0025 
59 1 0.030615 -0.014186 0.0473374 0 0 0 0 0 -0.578431 0 0 -0.00160516 0 0 0 0.0025 
60 1 0.00030964 -0.0304391 0.0209998 0 0 0 0 0 -0.578431 0 0 -0.00160516 0 0 0 0.0025 
61 1 -0.00136921 -0.0086155 0.0111366 0 0 0 0 0 -0.578431 0 0 -0.00160516 0 0 0 0.0025 
62 1 0.0226184 -0.0287599 0.0342328 0 0 0 0 0 -0.578431 0 0 -0.00160516 0 0 0 0.0025 
63 1 0.0306298 -0.0247486 0.0461081 0 0 0 0 0 -0.578431 0 0 -0.00160516 0 0 0 0.0025 
64 1 0.0312092 -0.016298 0.0625918 0 0 0 0 0 -0.578431 0 0 -0.00160516 0 0 0 0.0025 
65 1 0.000188755 -0.0112981 0.0158695 0 0 0 0 0 -0.578431 0 0 -0.00160516 0 0 0 0.0025 
66 1 0.0232558 -0.0254585 0.00245424 0 0 0 0.117353 0.133303 0.444216 -0.00188035 -0.00213593 0.0553085 0.33665 -0.296368 -1.14064e-14 0.0025 
67 1 -0.0303183 -0.0126892 0.0508315 0 0 0 0 0 -0.578431 0 0 -0.00160516 0 0 0 0.0025 
68 1 0.00046029 -0.0244571 0.0364157 0 0 0 0 0 -0.578431 0 0 -0.00160516 0 0 0 0.0025 
69 1 -0.0279523 -0.0199018 0.0629054 0 0 0 0 0 -0.578431 0 0 -0.00160516 0 0 0 0.0025 
70 1 0.000759759 -0.0278689 0.0164907 0 0 0 0 0 -0.578431 0 0 -0.00160516 0 0 0 0.0025 
71 1 -0.0178924 -0.0363334 0.0602754 0 0 0 0 0 -0.578431 0 0 -0.00160516 0 0 0 0.0025 
72 1 -0.0284932 -0.0199694 0.0441821 0 0 0 0 0 -0.578431 0 0 -0.00160516 0 0 0 0.0025 
73 1 -0.00729034 -0.0418445 0.0365048 0 0 0 0 0 -0.578431 0 0 -0.00160516 0 0 0 0.0025 
74 1 -0.0264149 -0.0152394 0.0158398 0 0 0 0 0 -0.578431 0 0 -0.00160516 0 0 0 0.0025 
75 1 0.00927504 -0.0196648 0.026535 0 0 0 0 0 -0.578431 0 0 -0.00160516 0 0 0 0.0025 
76 1 0.00627037 -0.0244571 0.0356062 0 0 0 0 0 -0.578431 0 0 -0.00160516 0 0 0 0.0025 
77 1 0.0113863 -0.00736909 0.0501774 0 0 0 0 0 -0.578431 0 0 -0.00160516 0 0 0 0.0025 
78 1 -0.0303569 -0.021424 0.0226022 0 0 0 0 0 -0.578431 0 0 -0.00160516 0 0 0 0.0025 
79 1 0.00130303 -0.00746357 0.0286629 0 0 0 0 0 -0.578431 0 0 -0.00160516 0 0 0 0.0025 
80 1 0.0150861 -0.011424 0.0146784 0 0 0 0 0 -0.578431 0 0 -0.00160516 0 0 0 0.0025 
81 1 -0.0171314 -0.0311056 0.02668 0 0 0 0 0 -0.578431 0 0 -0.00160516 0 0 0 0.0025 
82 1 -0.0242911 -0.032854 0.0262581 0 0 0 0 0 -0.578431 0 0 -0.00160516 0 0 0 0.0025 
83 1 0.0249804 -0.0247084 0.0459522 0 0 0 0 0 -0.578431 0 0 -0.00160516 0 0 0 0.0025 
84 1 -0.0365986 -0.00379437 0.05903 0 0 0 0 0 -0.578431 0 0 -0.00160516 0 0 0 0.0025 
85 1 -0.00685595 -0.0364989 0.00359543 0 0 0 0 0 0.500569 0 0 -0.00160516 0 0 0 0.0025 
86 1 -0.00364772 -0.0311055 0.0278111 0 0 0 0 0 -0.578431 0 0 -0.00160516 0 0 0 0.0025 
87 1 0.00462106 -0.0243857 0.0129896 0 0 0 0 0 -0.578431 0 0 -0.00160516 0 0 0 0.0025 
88 1 -0.00878326 -0.0326661 0.0377489 0 0 0 0 0 -0.578431 0 0 -0.00160516 0 0 0 0.0025 
89 1 0.0257457 -0.0285177 0.0662188 0 0 0 0 0 -0.578431 0 0 -0.00160516 0 0 0 0.0025 
90 1 0.0192425 -0.00286869 0.0389505 0 0 0 0 0 -0.578431 0 0 -0.00160516 0 0 0 0.0025 
91 1 0.0369779 -0.00380053 0.0366153 0 0 0 0 0 -0.578431 0 0 -0.00160516 0 0 0 0.0025 
92 1 0.0236924 -0.00381721 0.0194128 0 0 0 0 0 -0.578431 0 0 -0.00160516 0 0 0 0.0025 
93 1 0.0258234 -0.0053373 0.03907 0 0 0 0 0 -0.578431 0 0 -0.00160516 0 0 0 0.0025 
94 1 -0.0288499 -0.00288755 0.0356312 0 0 0 0 0 -0.578431 0 0 -0.00160516 0 0 0 0.0025 
95 1 -0.0249708 -0.0294464 0.00260654 0 0 0 0 0 -0.578431 0 0 -0.00160516 0 0 0 0.0025 
96 1 0.0107614 -0.0387269 0.0662191 0 0 0 0 0 -0.578431 0 0 -0.00160516 0 0 0 0.0025 
97 1 0.0218411 -0.035839 0.0357608 0 0 0 0 0 -0.578431 0 0 -0.00160516 0 0 0 0.0025 
98 1 -0.0214395 -0.00931127 0.0215237 0 0 0 0 0 -0.578431 0 0 -0.00160516 0 0 0 0.0025 
99 1 0.0386482 -0.00761106 0.0221863 0 0 0 0 0 -0.578431 0 0 -0.00160516 0 0 0 0.0025 
100 1 0.0227838 -0.0334236 0.0452004 0 0 0 0 0 -0.578431 0 0 -0.00160516 0 0 0 0.0025 
101 1 0.0113238 -0.0379308 0.01466 0 0 0 0 0 -0.578431 0 0 -0.00160516 0 0 0 0.0025 
102 1 -0.0341564 -0.0141818 0.00424668 0 0 0 0.382445 -0.18055 0.202469 0 0 -0.00160516 -10.9174 -20.8522 -2.07622 0.0025 
103 1 -0.0122754 -0.0387104 0.00406215 0 0 0 0 0 -0.578431 0 0 -0.00160516 0 0 0 0.0025 
104 1 0.029876 -0.0143 0.00379073 0 0 0 0 0 -0.578431 0 0 -0.00160516 0 0 0 0.0025 
105 1 -0.0402732 -0.00941278 0.00335181 0 0 0 -0.268458 0.225647 -0.404697 0 0 -0.00160516 -12.3657 -14.7117 -1.59816e-15 0.0025 
106 1 -0.0122862 -0.0391829 0.0431131 0 0 0 0 0 -0.578431 0 0 -0.00160516 0 0 0 0.0025 
107 1 0.0334735 -0.0229308 0.0400384 0 0 0 0 0 -0.578431 0 0 -0.00160516 0 0 0 0.0025 
108 1 0.0310049 -0.0231817 0.0638367 0 0 0 0 0 -0.578431 0 0 -0.00160516 0 0 0 0.0025 
109 1 0.0354925 -0.0212821 0.0234686 0 0 0 0 0 -0.578431 0 0 -0.00160516 0 0 0 0.0025 
110 1 0.038611 -0.00489106 0.013949 0 0 0 0 0 -0.578431 0 0 -0.00160516 0 0 0 0.0025 
111 1 -0.00998512 -0.00747318 0.0593616 0 0 0 0 0 -0.578431 0 0 -0.00160516 0 0 0 0.0025 
112 1 0.0386645 -0.00572211 0.0598445 0 0 0 0 0 -0.578431 0 0 -0.00160516 0 0 0 0.0025 
113 1 -0.0215971 -0.0283509 0.0156451 0 0 0 0 0 -0.578431 0 0 -0.00160516 0 0 0 0.0025 
114 1 -0.00300839 -0.0135082 0.0583064 0 0 0 0 0 -0.578431 0 0 -0.00160516 0 0 0 0.0025 
115 1 0.00159461 -0.0321682 0.0371676 0 0 0 0 0 -0.578431 0 0 -0.00160516 0 0 0 0.0025 
116 1 0.00116514 -0.0412347 0.0189304 0 0 0 0 0 -0.578431 0 0 -0.00160516 0 0 0 0.0025 
117 1 -0.00706643 -0.00525017 0.00471678 0 0 0 1.72156e-05 -7.27269e-06 -0.578431 0.00056338 -0.000237998 -0.00160087 0.000359772 0.000849069 -0.000142692 0.0025 
118 1 0.00104052 -0.00850947 0.0562666 0 0 0 0 0 -0.578431 0 0 -0.00160516 0 0 0 0.0025 
119 1 -0.000705113 -0.0079185 0.0353859 0 0 0 0 0 -0.578431 0 0 -0.00160516 0 0 0 0.0025 
120 1 -0.0215908 -0.0209089 0.0533555 0 0 0 0 0 -0.578431 0 0 -0.00160516 0 0 0 0.0025 
121 1 -0.029788 -0.0106767 0.024259 0 0 0 0 0 -0.578431 0 0 -0.00160516 0 0 0 0.0025 
122 1 0.0355418 -0.0119518 0.00564852 0 0 0 0 0 -0.578431 0 0 -0.00160516 0 0 0 0.0025 
123 1 0.0199847 -0.0207325 0.0449875 0 0 0 0 0 -0.578431 0 0 -0.00160516 0 0 0 0.0025 
124 1 0.0308992 -0.0109001 0.0664652 0 0 0 0 0 -0.578431 0 0 -0.00160516 0 0 0 0.0025 
125 1 -0.0344428 -0.0229519 0.049297 0 0 0 0 0 -0.578431 0 0 -0.00160516 0 0 0 0.0025 
126 1 0.00480804 -0.0281505 0.00349659 0 0 0 0 0 -0.578431 0 0 -0.00160516 0 0 0 0.0025 
127 1 -0.0383135 -0.0147692 0.0604544 0 0 0 0 0 -0.578431 0 0 -0.00160516 0 0 0 0.0025 
128 1 -0.0273145 -0.0150825 0.0593484 0 0 0 0 0 -0.578431 0 0 -0.00160516 0 0 0 0.0025 
129 1 0.00956518 -0.0115241 0.0626289 0 0 0 0 0 -0.578431 0 0 -0.00160516 0 0 0 0.0025 
130 1 0.0338927 -0.00978446 0.0416352 0 0 0 0 0 -0.578431 0 0 -0.00160516 0 0 0 0.0025 
131 1 -0.00273614 -0.020668 0.0499538 0 0 0 0 0 -0.578431 0 0 -0.00160516 0 0 0 0.0025 
132 1 0.0301906 -0.0254136 0.0187454 0 0 0 0 0 -0.578431 0 0 -0.00160516 0 0 0 0.0025 
133 1 -0.0238404 -0.0254824 0.0408489 0 0 0 0 0 -0.578431 0 0 -0.00160516 0 0 0 0.0025 
134 1 0.0222554 -0.019395 0.00814558 0 0 0 0 0 -0.578431 0 0 -0.00160516 0 0 0 0.0025 
135 1 0.0137471 -0.0139477 0.0465174 0 0 0 0 0 -0.578431 0 0 -0.00160516 0 0 0 0.0025 
136 1 -0.0410007 -0.00670882 0.0204665 0 0 0 0 0 -0.578431 0 0 -0.00160516 0 0 0 0.0025 
137 1 -0.026789 -0.00877786 0.0382675 0 0 0 0 0 -0.578431 0 0 -0.00160516 0 0 0 0.0025 
138 1 -0.0417286 -0.00344794 0.0130873 0 0 0 0 0 -0.578431 0 0 -0.00160516 0 0 0 0.0025 
139 1 0.00429639 -0.00779227 0.0460977 0 0 0 0 0 -0.578431 0 0 -0.00160516 0 0 0 0.0025 
140 1 0.0182077 -0.0140909 0.0106694 0 0 0 0 0 -0.578431 0 0 -0.00160516 0 0 0 0.0025 
141 1 -0.0015566 -0.0228872 0.00377236 0 0 0 -0.118783 -0.391422 0.151164 0 0 -0.00160516 -22.8587 6.93684 3.35967e-15 0.0025 
142 1 0.0154878 -0.0158299 0.00257149 0 0 0 0.212264 0.111972 -0.319774 0 0 -0.00160516 -3.51647 13.393 -4.60876 0.0025 
143 1 0.0206153 -0.0321757 0.0514273 0 0 0 0 0 -0.578431 0 0 -0.00160516 0 0 0 0.0025 
144 1 -0.00667555 -0.00546899 0.0252075 0 0 0 0 0 -0.578431 0 0 -0.00160516 0 0 0 0.0025 
145 1 -0.00806454 -0.0228854 0.0367795 0 0 0 0 0 -0.578431 0 0 -0.00160516 0 0 0 0.0025 
146 1 -0.033408 -0.011318 0.0601536 0 0 0 0 0 -0.578431 0 0 -0.00160516 0 0 0 0.0025 
147 1 0.00327391 -0.00518848 0.00777383 0 0 0 0 0 -0.578431 0 0 -0.00160516 0 0 0 0.0025 
148 1 0.00684132 -0.0414452 0.0458065 0 0 0 0 0 -0.578431 0 0 -0.00160516 0 0 0 0.0025 
149 1 0.0257473 -0.0151343 0.0337804 0 0 0 0 0 -0.578431 0 0 -0.00160516 0 0 0 0.0025 
150 1 -0.00255108 -0.0405038 0.0155347 0 0 0 0 0 -0.578431 0 0 -0.00160516 0 0 0 0.0025 
151 1 0.0202748 -0.0130436 0.0238577 0 0 0 0 0 -0.578431 0 0 -0.00160516 0 0 0 0.0025 
152 1 -0.0113263 -0.0283043 0.0464028 0 0 0 0 0 -0.578431 0 0 -0.00160516 0 0 0 0.0025 
153 1 0.02269 -0.011693 0.0564138 0 0 0 0 0 -0.578431 0 0 -0.00160516 0 0 0 0.0025 
154 1 0.0107228 -0.00318056 0.00284289 0 0 0 0 0 -0.578431 0 0 -0.00160516 0 0 0 0.0025 
155 1 -0.0332252 -0.00543356 0.0427492 0 0 0 0 0 -0.578431 0 0 -0.00160516 0 0 0 0.0025 
156 1 -0.0158357 -0.0326062 0.0671202 0 0 0 0 0 -0.578431 0 0 -0.00160516 0 0 0 0.0025 
157 1 -0.0132417 -0.014473 0.0318353 0 0 0 0 0 -0.578431 0 0 -0.00160516 0 0 0 0.0025 
158 1 -0.010579 -0.0105676 0.00796938 0 0 0 -0.51155 0.120473 -0.318927 0 0 -0.00160516 -11.1906 -23.0657 -11.257 0.0025 
159 1 0.0166811 -0.0177695 0.0181492 0 0 0 0 0 -0.578431 0 0 -0.00160516 0 0 0 0.0025 
160 1 0.0112984 -0.026631 0.0423629 0 0 0 0 0 -0.578431 0 0 -0.00160516 0 0 0 0.0025 
161 1 0.0234118 -0.0216485 0.0353215 0 0 0 0 0 -0.578431 0 0 -0.00160516 0 0 0 0.0025 
162 1 0.0296738 -0.00335531 0.057979 0 0 0 0 0 -0.578431 0 0 -0.00160516 0 0 0 0.0025 
163 1 -0.0155176 -0.0148855 0.0267092 0 0 0 0 0 -0.578431 0 0 -0.00160516 0 0 0 0.0025 
164 1 0.00078639 -0.0290754 0.044398 0 0 0 0 0 -0.578431 0 0 -0.00160516 0 0 0 0.0025 
165 1 -0.00816117 -0.0249126 0.0272844 0 0 0 0 0 -0.578431 0 0 -0.00160516 0 0 0 0.0025 
166 1 0.0246551 -0.0132545 0.0392396 0 0 0 0 0 -0.578431 0 0 -0.00160516 0 0 0 0.0025 
167 1 -0.00938307 -0.0331163 0.0288534 0 0 0 0 0 -0.578431 0 0 -0.00160516 0 0 0 0.0025 
168 1 -0.0110984 -0.00329622 0.0631886 0 0 0 0 0 -0.578431 0 0 -0.00160516 0 0 0 0.0025 
169 1 -0.0158812 -0.00982904 0.0679899 0 0 0 0 0 -0.578431 0 0 -0.00160516 0 0 0 0.0025 
170 1 0.00806907 -0.0290834 0.0475727 0 0 0 0 0 -0.578431 0 0 -0.00160516 0 0 0 0.0025 
171 1 -0.0240898 -0.00620691 0.0547668 0 0 0 0 0 -0.578431 0 0 -0.00160516 0 0 0 0.0025 
172 1 0.0418773 -0.00619377 0.0477596 0 0 0 0 0 -0.578431 0 0 -0.00160516 0 0 0 0.0025 
173 1 -0.0341695 -0.0204808 0.043371 0 0 0 0 0 -0.578431 0 0 -0.00160516 0 0 0 0.0025 
174 1 -0.0274124 -0.0277686 0.0505165 0 0 0 0 0 -0.578431 0 0 -0.00160516 0 0 0 0.0025 
175 1 0.0372553 -0.0123787 0.0488976 0 0 0 0 0 -0.578431 0 0 -0.00160516 0 0 0 0.0025 
176 1 0.0100122 -0.0350836 0.0443861 0 0 0 0 0 -0.578431 0 0 -0.00160516 0 0 0 0.0025 
177 1 0.0204456 -0.0178454 0.0659497 0 0 0 0 0 -0.578431 0 0 -0.00160516 0 0 0 0.0025 
178 1 0.0378918 -0.0188307 0.0651878 0 0 0 0 0 -0.578431 0 0 -0.00160516 0 0 0 0.0025 
179 1 0.0166828 -0.0208179 0.00281309 0 0 0 0.0929057 -0.322656 0.495163 0 0 -0.00160516 -5.54276 -0.900041 -4.60876 0.0025 
180 1 -0.0260904 -0.0333292 0.064927 0 0 0 0 0 -0.578431 0 0 -0.00160516 0 0 0 0.0025 
181 1 -0.0244217 -0.00549287 0.0313552 0 0 0 0 0 -0.578431 0 0 -0.00160516 0 0 0 0.0025 
182 1 -0.0212371 -0.0187306 0.0190975 0 0 0 0 0 -0.578431 0 0 -0.00160516 0 0 0 0.0025 
183 1 0.0294205 -0.0174925 0.0529192 0 0 0 0 0 -0.578431 0 0 -0.00160516 0 0 0 0.0025 
184 1 -0.0049938 -0.00290683 0.0206699 0 0 0 0 0 -0.578431 0 0 -0.00160516 0 0 0 0.0025 
185 1 0.00785942 -0.0358596 0.0594091 0 0 0 0 0 -0.578431 0 0 -0.00160516 0 0 0 0.0025 
186 1 0.0181997 -0.0362684 0.00737981 0 0 0 0 0 -0.578431 0 0 -0.00160516 0 0 0 0.0025 
187 1 -0.0199834 -0.0132501 0.0136425 0 0 0 0 0 -0.578431 0 0 -0.00160516 0 0 0 0.0025 
188 1 0.0184552 -0.00441697 0.0190147 0 0 0 0 0 -0.578431 0 0 -0.00160516 0 0 0 0.0025 
189 1 0.0058917 -0.0415388 0.0039535 0 0 0 -0.412572 -0.2113 0.0215031 0 0 -0.00160516 -13.815 26.9743 -2.96857e-14 0.0025 
190 1 -0.00942885 -0.0128798 0.0362028 0 0 0 0 0 -0.578431 0 0 -0.00160516 0 0 0 0.0025 
191 1 0.00720424 -0.00665 0.0180718 0 0 0 0 0 -0.578431 0 0 -0.00160516 0 0 0 0.0025 
192 1 -0.0186946 -0.027884 0.042573 0 0 0 0 0 -0.578431 0 0 -0.00160516 0 0 0 0.0025 
193 1 -0.00115071 -0.0175001 0.0641589 0 0 0 0 0 -0.578431 0 0 -0.00160516 0 0 0 0.0025 
194 1 0.0176441 -0.0250623 0.0329954 0 0 0 0 0 -0.578431 0 0 -0.00160516 0 0 0 0.0025 
195 1 -0.0160487 -0.022862 0.0187138 0 0 0 0 0 -0.578431 0 0 -0.00160516 0 0 0 0.0025 
196 1 -0.0361499 -0.0130679 0.0182001 0 0 0 0 0 -0.578431 0 0 -0.00160516 0 0 0 0.0025 
197 1 -0.00631949 -0.0283066 0.0546029 0 0 0 0 0 -0.578431 0 0 -0.00160516 0 0 0 0.0025 
198 1 0.0152151 -0.00750632 0.0311644 0 0 0 0 0 -0.578431 0 0 -0.00160516 0 0 0 0.0025 
199 1 0.0106407 -0.0187562 0.0538159 0 0 0 0 0 -0.578431 0 0 -0.00160516 0 0 0 0.0025 
200 1 -0.0151832 -0.0391078 0.0472697 0 0 0 0 0 -0.578431 0 0 -0.00160516 0 0 0 0.0025 
201 1 -0.0155504 -0.0199324 0.0315941 0 0 0 0 0 -0.578431 0 0 -0.00160516 0 0 0 0.0025 
202 1 0.0088988 -0.00907662 0.00330172 0 0 0 -0.134813 0.471617 0.201746 0 0 -0.00160516 15.3822 9.85101 9.44684 0.0025 
203 1 -0.012192 -0.0130935 0.04863 0 0 0 0 0 -0.578431 0 0 -0.00160516 0 0 0 0.0025 
204 1 -0.0311556 -0.0284462 0.0441077 0 0 0 0 0 -0.578431 0 0 -0.00160516 0 0 0 0.0025 
205 1 0.0317765 -0.0190601 0.0148975 0 0 0 0 0 -0.578431 0 0 -0.00160516 0 0 0 0.0025 
206 1 0.0332542 -0.0206064 0.0504376 0 0 0 0 0 -0.578431 0 0 -0.00160516 0 0 0 0.0025 
207 1 0.00416297 -0.00400936 0.0368068 0 0 0 0 0 -0.578431 0 0 -0.00160516 0 0 0 0.0025 
208 1 0.0109309 -0.00941975 0.057719 0 0 0 0 0 -0.578431 0 0 -0.00160516 0 0 0 0.0025 
209 1 -0.0235594 -0.00391196 0.0651924 0 0 0 0 0 -0.578431 0 0 -0.00160516 0 0 0 0.0025 
210 1 -0.037766 -0.00401175 0.0449993 0 0 0 0 0 -0.578431 0 0 -0.00160516 0 0 0 0.0025 
211 1 -0.0311746 -0.00795121 0.0191542 0 0 0 0 0 -0.578431 0 0 -0.00160516 0 0 0 0.0025 
212 1 0.0177821 -0.0359031 0.0393261 0 0 0 0 0 -0.578431 0 0 -0.00160516 0 0 0 0.0025 
213 1 0.0164712 -0.0266338 0.0384197 0 0 0 0 0 -0.578431 0 0 -0.00160516 0 0 0 0.0025 
214 1 -0.00619357 -0.00515209 0.052168 0 0 0 0 0 -0.578431 0 0 -0.00160516 0 0 0 0.0025 
215 1 0.0170878 -0.0197797 0.0335566 0 0 0 0 0 -0.578431 0 0 -0.00160516 0 0 0 0.0025 
216 1 0.0119488 -0.00536329 0.061041 0 0 0 0 0 -0.578431 0 0 -0.00160516 0 0 0 0.0025 
217 1 -0.0103315 -0.0379733 0.0247171 0 0 0 0 0 -0.578431 0 0 -0.00160516 0 0 0 0.0025 
218 1 -0.00517195 -0.0166519 0.00466328 0 0 0 0.0375441 -0.36224 0.261993 0 0 -0.00160516 -19.7245 -0.73879 -2.64697 0.0025 
219 1 0.0132911 -0.0206687 0.0298634 0 0 0 0 0 -0.578431 0 0 -0.00160516 0 0 0 0.0025 
220 1 0.0172419 -0.0300649 0.00239726 0 0 0 0 0 -0.462062 0 0 0.226108 0 0 0 0.0025 
221 1 -0.0337018 -0.00594915 0.00422777 0 0 0 0 0 0.474186 0 0 -0.00160516 0 0 0 0.0025 
222 1 -0.00558152 -0.0116499 0.00624137 0 0 0 0.0512673 0.227455 -0.123991 0 0 -0.00160516 -10.6696 -44.6954 1.67928 0.0025 
223 1 0.0309134 -0.0271079 0.0337954 0 0 0 0 0 -0.578431 0 0 -0.00160516 0 0 0 0.0025 
224 1 0.0121005 -0.0359802 0.0541367 0 0 0 0 0 -0.578431 0 0 -0.00160516 0 0 0 0.0025 
225 1 0.00451876 -0.0204632 0.00545296 0 0 0 0.253881 -0.306444 -0.376086 0 0 -0.00160516 17.0612 5.9929 -12.3299 0.0025 
226 1 -0.00537013 -0.015381 0.0235438 0 0 0 0 0 -0.578431 0 0 -0.00160516 0 0 0 0.0025 
227 1 0.00886467 -0.00327264 0.048576 0 0 0 0 0 -0.578431 0 0 -0.00160516 0 0 0 0.0025 
228 1 -0.0380723 -0.013056 0.0494521 0 0 0 0 0 -0.578431 0 0 -0.00160516 0 0 0 0.0025 
229 1 -0.0305549 -0.0205854 0.0393635 0 0 0 0 0 -0.578431 0 0 -0.00160516 0 0 0 0.0025 
230 1 0.00571771 -0.0337403 0.0240146 0 0 0 0 0 -0.578431 0 0 -0.00160516 0 0 0 0.0025 
231 1 -0.0397819 -0.0154394 0.00409524 0 0 0 -0.113987 -0.0450972 -0.52455 0 0 -0.00160516 1.44826 -6.1405 -2.07622 0.0025 
232 1 0.0246668 -0.00543012 0.0640382 0 0 0 0 0 -0.578431 0 0 -0.00160516 0 0 0 0.0025 
233 1 0.0160879 -0.00812775 0.023738 0 0 0 0 0 -0.578431 0 0 -0.00160516 0 0 0 0.0025 
234 1 0.00826139 -0.0329134 0.0113282 0 0 0 0 0 -0.578431 0 0 -0.00160516 0 0 0 0.0025 
235 1 0.00501192 -0.024813 0.0432025 0 0 0 0 0 -0.578431 0 0 -0.00160516 0 0 0 0.0025 
236 1 -0.0172311 -0.0139396 0.0499626 0 0 0 0 0 -0.578431 0 0 -0.00160516 0 0 0 0.0025 
237 1 0.0272736 -0.0138203 0.0154474 0 0 0 0 0 -0.578431 0 0 -0.00160516 0 0 0 0.0025 
238 1 -0.0300942 -0.0101815 0.00459982 0 0 0 -0.463924 -0.335384 -0.473095 0 0 -0.00160516 -18.1176 37.476 -24.1639 0.0025 
239 1 -0.0306014 -0.00655516 0.0497951 0 0 0 0 0 -0.578431 0 0 -0.00160516 0 0 0 0.0025 
240 1 0.00992428 -0.00883769 0.0123834 0 0 0 0 0 -0.578431 0 0 -0.00160516 0 0 0 0.0025 
241 1 0.00370383 -0.0373849 0.00707127 0 0 0 0 0 -0.578431 0 0 -0.00160516 0 0 0 0.0025 
242 1 -0.0161041 -0.0379638 0.0651032 0 0 0 0 0 -0.578431 0 0 -0.00160516 0 0 0 0.0025 
243 1 0.0181354 -0.0367579 0.0198108 0 0 0 0 0 -0.578431 0 0 -0.00160516 0 0 0 0.0025 
244 1 -0.0284081 -0.0250443 0.0126788 0 0 0 0 0 -0.578431 0 0 -0.00160516 0 0 0 0.0025 
245 1 -0.0333272 -0.00768184 0.0644889 0 0 0 0 0 -0.578431 0 0 -0.00160516 0 0 0 0.0025 
246 1 -0.0400472 -0.0038607 0.00337526 0 0 0 0 0 0.509242 0 0 -0.00160516 0 0 0 0.0025 
247 1 0.0120735 -0.0378634 0.0276532 0 0 0 0 0 -0.578431 0 0 -0.00160516 0 0 0 0.0025 
248 1 -0.00856102 -0.0100226 0.0453461 0 0 0 0 0 -0.578431 0 0 -0.00160516 0 0 0 0.0025 
249 1 -0.0154469 -0.0054361 0.0465787 0 0 0 0 0 -0.578431 0 0 -0.00160516 0 0 0 0.0025 
250 1 -0.000105288 -0.0051161 0.00263251 0 0 0 0.0429546 0.22947 0.510178 0.0346494 0.187638 -0.0225216 10.9531 -1.71747 2.85766 0.0025 
251 1 -0.0131122 -0.00561098 0.0227468 0 0 0 0 0 -0.578431 0 0 -0.00160516 0 0 0 0.0025 
252 1 -0.0213898 -0.00513487 0.00328594 0 0 0 -0.0750528 0.280895 -0.217241 0 0 -0.00160516 25.0263 -7.44722 -10.6818 0.0025 
253 1 -0.0378364 -0.0106916 0.0561173 0 0 0 0 0 -0.578431 0 0 -0.00160516 0 0 0 0.0025 
254 1 0.0280138 -0.00315551 0.0296733 0 0 0 0 0 -0.578431 0 0 -0.00160516 0 0 0 0.0025 
255 1 -0.00221925 -0.0419395 0.00438969 0 0 0 0 0 0.467076 0 0 -0.00160516 0 0 0 0.0025 
256 1 -0.0417021 -0.00606499 0.0553316 0 0 0 0 0 -0.578431 0 0 -0.00160516 0 0 0 0.0025 
257 1 -0.000156397 -0.0317786 0.00430641 0 0 0 0 0 0.470994 0 0 -0.00160516 0 0 0 0.0025 
258 1 -0.0225151 -0.00321988 0.0265195 0 0 0 0 0 -0.578431 0 0 -0.00160516 0 0 0 0.0025 
259 1 -0.0122626 -0.0212512 0.064806 0 0 0 0 0 -0.578431 0 0 -0.00160516 0 0 0 0.0025 
260 1 -0.035294 -0.0209804 0.00524729 0 0 0 0 0 0.426046 0 0 -0.00160516 0 0 0 0.0025 
261 1 -0.0254162 -0.00946816 0.00731319 0 0 0 -0.157732 -0.086266 0.0332186 0 0 -0.00160516 32.3458 15.2594 -6.00955 0.0025 
262 1 0.0164286 -0.02461 0.0280815 0 0 0 0 0 -0.578431 0 0 -0.00160516 0 0 0 0.0025 
263 1 0.0247311 -0.00437181 0.00912185 0 0 0 0 0 -0.578431 0 0 -0.00160516 0 0 0 0.0025 
264 1 0.00790453 -0.0168148 0.0587645 0 0 0 0 0 -0.578431 0 0 -0.00160516 0 0 0 0.0025 
265 1 -0.0165031 -0.016072 0.0158723 0 0 0 0 0 -0.578431 0 0 -0.00160516 0 0 0 0.0025 
266 1 -0.0254421 -0.0303484 0.0109967 0 0 0 0 0 -0.578431 0 0 -0.00160516 0 0 0 0.0025 
267 1 0.0272676 -0.0195429 0.0652981 0 0 0 0 0 -0.578431 0 0 -0.00160516 0 0 0 0.0025 
268 1 0.000754363 -0.0282112 0.0290506 0 0 0 0 0 -0.578431 0 0 -0.00160516 0 0 0 0.0025 
269 1 0.0154393 -0.0132093 0.0309504 0 0 0 0 0 -0.578431 0 0 -0.00160516 0 0 0 0.0025 
270 1 -0.0282024 -0.00609541 0.0280499 0 0 0 0 0 -0.578431 0 0 -0.00160516 0 0 0 0.0025 
271 1 -0.0168054 -0.0367308 0.0296722 0 0 0 0 0 -0.578431 0 0 -0.00160516 0 0 0 0.0025 
272 1 -0.00717215 -0.0386603 0.0568291 0 0 0 0 0 -0.578431 0 0 -0.00160516 0 0 0 0.0025 
273 1 0.0067159 -0.0154665 0.0278026 0 0 0 0 0 -0.578431 0 0 -0.00160516 0 0 0 0.0025 
274 1 0.00290677 -0.0304538 0.0582489 0 0 0 0 0 -0.578431 0 0 -0.00160516 0 0 0 0.0025 
275 1 -0.0393678 -0.00996918 0.0424768 0 0 0 0 0 -0.578431 0 0 -0.00160516 0 0 0 0.0025 
276 1 -0.0206978 -0.0311121 0.0679906 0 0 0 0 0 -0.578431 0 0 -0.00160516 0 0 0 0.0025 
277 1 0.0114064 -0.0191982 0.046542 0 0 0 0 0 -0.578431 0 0 -0.00160516 0 0 0 0.0025 
278 1 -0.0083623 -0.00510196 0.0313936 0 0 0 0 0 -0.578431 0 0 -0.00160516 0 0 0 0.0025 
279 1 0.00936359 -0.0405973 0.0218335 0 0 0 0 0 -0.578431 0 0 -0.00160516 0 0 0 0.0025 
280 1 0.0252263 -0.0281365 0.0191379 0 0 0 0 0 -0.578431 0 0 -0.00160516 0 0 0 0.0025 
281 1 -0.0185826 -0.031273 0.0629662 0 0 0 0 0 -0.578431 0 0 -0.00160516 0 0 0 0.0025 
282 1 0.0331208 -0.0169471 0.0284144 0 0 0 0 0 -0.578431 0 0 -0.00160516 0 0 0 0.0025 
283 1 0.0114882 -0.00625837 0.0384085 0 0 0 0 0 -0.578431 0 0 -0.00160516 0 0 0 0.0025 
284 1 0.0292341 -0.00877481 0.0486058 0 0 0 0 0 -0.578431 0 0 -0.00160516 0 0 0 0.0025 
285 1 0.0228341 -0.0157845 0.0453427 0 0 0 0 0 -0.578431 0 0 -0.00160516 0 0 0 0.0025 
286 1 -0.0173558 -0.0267388 0.0228164 0 0 0 0 0 -0.578431 0 0 -0.00160516 0 0 0 0.0025 
287 1 0.00388436 -0.00527626 0.0239747 0 0 0 0 0 -0.578431 0 0 -0.00160516 0 0 0 0.0025 
288 1 -0.0175802 -0.0226389 0.0410295 0 0 0 0 0 -0.578431 0 0 -0.00160516 0 0 0 0.0025 
289 1 0.0414166 -0.00828382 0.00247846 0 0 0 0 0 0.541843 0 0 0.0114175 0 0 0 0.0025 
290 1 0.0336471 -0.00412138 0.0488598 0 0 0 0 0 -0.578431 0 0 -0.00160516 0 0 0 0.0025 
291 1 -0.00278543 -0.0298317 0.00907697 0 0 0 0 0 -0.578431 0 0 -0.00160516 0 0 0 0.0025 
292 1 -0.0413437 -0.00922315 0.0148665 0 0 0 0 0 -0.578431 0 0 -0.00160516 0 0 0 0.0025 
293 1 -0.0151593 -0.0188407 0.0109931 0 0 0 0 0 -0.578431 0 0 -0.00160516 0 0 0 0.0025 
294 1 -0.0201401 -0.024643 0.00389805 0 0 0 0 0 -0.578431 0 0 -0.00160516 0 0 0 0.0025 
295 1 -0.00176722 -0.0233515 0.0306282 0 0 0 0 0 -0.578431 0 0 -0.00160516 0 0 0 0.0025 
296 1 -0.0304478 -0.0206338 0.0341153 0 0 0 0 0 -0.578431 0 0 -0.00160516 0 0 0 0.0025 
297 1 -0.0333711 -0.0164966 0.0484935 0 0 0 0 0 -0.578431 0 0 -0.00160516 0 0 0 0.0025 
298 1 0.00748389 -0.041627 0.0528405 0 0 0 0 0 -0.578431 0 0 -0.00160516 0 0 0 0.0025 
299 1 -0.00207953 -0.0378275 0.0586977 0 0 0 0 0 -0.578431 0 0 -0.00160516 0 0 0 0.0025 
300 1 -0.012782 -0.0208985 0.043633 0 0 0 0 0 -0.578431 0 0 -0.00160516 0 0 0 0.0025 
301 1 -0.0114928 -0.0322451 0.0555921 0 0 0 0 0 -0.578431 0 0 -0.00160516 0 0 0 0.0025 
302 1 0.0123682 -0.0367172 0.0365469 0 0 0 0 0 -0.578431 0 0 -0.00160516 0 0 0 0.0025 
303 1 0.0333072 -0.02529 0.0294432 0 0 0 0 0 -0.578431 0 0 -0.00160516 0 0 0 0.0025 
304 1 0.0215164 -0.0194478 0.0311671 0 0 0 0 0 -0.578431 0 0 -0.00160516 0 0 0 0.0025 
305 1 0.0309805 -0.00266895 0.00881467 0 0 0 0 0 -0.578431 0 0 -0.00160516 0 0 0 0.0025 
306 1 -0.0314061 -0.0185836 0.0122409 0 0 0 0 0 -0.578431 0 0 -0.00160516 0 0 0 0.0025 
307 1 0.00946729 -0.0241211 0.00451041 0 0 0 0 0 0.461736 0 0 -0.00160516 0 0 0 0.0025 
308 1 -0.0258006 -0.0276315 0.0651982 0 0 0 0 0 -0.578431 0 0 -0.00160516 0 0 0 0.0025 
309 1 0.0312833 -0.023034 0.00458127 0 0 0 0 0 0.458474 0 0 -0.00160516 0 0 0 0.0025 
310 1 -0.023015 -0.0192779 0.0635796 0 0 0 0 0 -0.578431 0 0 -0.00160516 0 0 0 0.0025 
311 1 -0.0199849 -0.0256904 0.0654457 0 0 0 0 0 -0.578431 0 0 -0.00160516 0 0 0 0.0025 
312 1 -0.0364221 -0.00545267 0.0324297 0 0 0 0 0 -0.578431 0 0 -0.00160516 0 0 0 0.0025 
313 1 0.0253823 -0.0220134 0.013888 0 0 0 0 0 -0.578431 0 0 -0.00160516 0 0 0 0.0025 
314 1 -0.0234119 -0.0247011 0.0271011 0 0 0 0 0 -0.578431 0 0 -0.00160516 0 0 0 0.0025 
315 1 0.000556432 -0.0265262 0.0522097 0 0 0 0 0 -0.578431 0 0 -0.00160516 0 0 0 0.0025 
316 1 -0.0278733 -0.0310061 0.0385468 0 0 0 0 0 -0.578431 0 0 -0.00160516 0 0 0 0.0025 
317 1 -0.000748185 -0.00987548 0.0421763 0 0 0 0 0 -0.578431 0 0 -0.00160516 0 0 0 0.0025 
318 1 -0.0193758 -0.0368294 0.0423275 0 0 0 0 0 -0.578431 0 0 -0.00160516 0 0 0 0.0025 
319 1 0.0109819 -0.0309492 0.0580635 0 0 0 0 0 -0.578431 0 0 -0.00160516 0 0 0 0.0025 
320 1 0.0120959 -0.0299141 0.026316 0 0 0 0 0 -0.578431 0 0 -0.00160516 0 0 0 0.0025 
321 1 -0.00384403 -0.015767 0.0102431 0 0 0 0 0 -0.578431 0 0 -0.00160516 0 0 0 0.0025 
322 1 0.0373081 -0.0191997 0.00519055 0 0 0 0 0 -0.578431 0 0 -0.00160516 0 0 0 0.0025 
323 1 0.015855 -0.0296375 0.0509806 0 0 0 0 0 -0.578431 0 0 -0.00160516 0 0 0 0.0025 
324 1 -0.00226193 -0.0406279 0.0668329 0 0 0 0 0 -0.578431 0 0 -0.00160516 0 0 0 0.0025 
325 1 -0.0287505 -0.0226601 0.0490109 0 0 0 0 0 -0.578431 0 0 -0.00160516 0 0 0 0.0025 
326 1 -0.0103608 -0.0147519 0.0206443 0 0 0 0 0 -0.578431 0 0 -0.00160516 0 0 0 0.0025 
327 1 0.0256469 -0.00377867 0.0487808 0 0 0 0 0 -0.578431 0 0 -0.00160516 0 0 0 0.0025 
328 1 -0.0161721 -0.0050768 0.00381716 0 0 0 0.184803 -0.0410619 -0.513463 -0.00113225 -0.00044329 -0.00182014 4.54335 6.46432 -9.26881 0.0025 
329 1 0.00350132 -0.0291524 0.0633215 0 0 0 0 0 -0.578431 0 0 -0.00160516 0 0 0 0.0025 