ITEM: TIMESTEP
13600
ITEM: NUMBER OF ATOMS
1800
ITEM: BOX BOUNDS mm mm mm
-0.05 0.05
-0.05 0.05
0 0.15
ITEM: ATOMS id type x y z ix iy iz vx vy vz fx fy fz omegax omegay omegaz radius 
410 1 -0.0082712 -0.0468029 0.00247167 0 0 0 -0.0128964 -0.0923874 -0.174152 0.00459696 0.0339799 0.0342296 -21.8763 -9.83492 -20.7821 0.0025 
255 1 -0.00331152 -0.0473864 0.00248868 0 0 0 0.0956449 -0.0791447 0.126164 0.00124392 0.000992345 0.00469567 30.1044 23.9398 -9.42435 0.0025 
217 1 -0.016496 -0.0444406 0.00248695 0 0 0 0.154441 0.0692365 0.00248174 -0.00040915 -0.000271693 0.00821769 -1.59122 22.5191 0.347974 0.0025 
28 1 0.000952389 -0.043269 0.00246645 0 0 0 -0.0178258 0.0610167 -0.0371618 -0.0196335 0.028596 0.0287798 -18.779 5.94314 -7.4604 0.0025 
279 1 0.0153688 -0.0447469 0.00249448 0 0 0 0.0416169 -0.0368248 0.0267044 0.0435469 -0.0253496 -0.00203534 -8.11059 18.9718 20.2593 0.0025 
413 1 -0.025644 -0.0399818 0.00250739 0 0 0 -0.0684565 0.0479141 0.073281 -0.000339881 0.000202788 -0.00167681 -6.11976 -7.35255 3.06579 0.0025 
37 1 -0.0213082 -0.0424666 0.00247427 0 0 0 0.0195516 0.113596 -0.0245029 -0.00149832 0.000644027 0.0156373 -7.77151 -8.77605 17.7855 0.0025 
18 1 -0.0111369 -0.0413504 0.0025303 0 0 0 0.0653 -0.102865 -0.134525 0 0 -0.00160516 -24.4396 -1.11946 24.3003 0.0025 
218 1 -0.00554465 -0.0422839 0.00287883 0 0 0 -0.127321 0.0175398 -0.0497703 0.0478833 -0.0923797 -0.00205297 2.96689 48.575 -7.51504 0.0025 
141 1 0.00614912 -0.0428321 0.00262373 0 0 0 -0.14967 -0.0226463 0.0392516 0 0 -0.00160516 -9.72575 8.69201 -23.0731 0.0025 
230 1 0.0111699 -0.0421251 0.0025731 0 0 0 -0.0145236 -0.0201858 0.0587293 -0.0435282 0.0254699 0.00126049 32.3328 -18.4282 -16.902 0.0025 
409 1 0.0201698 -0.0423522 0.00263738 0 0 0 0.00502415 -0.00073204 -0.029355 0 0 -0.00160516 -7.36322 -11.8639 10.9 0.0025 
389 1 0.0247477 -0.0402992 0.00283034 0 0 0 -0.0369236 0.0260584 0.148949 0 0 -0.00160516 -19.0085 -12.9416 -3.49614 0.0025 
95 1 -0.0214589 -0.0371736 0.00246419 0 0 0 0.122226 -0.0925675 0.00323158 0.0129158 -0.00421429 0.0231606 14.6879 22.8672 13.3154 0.0025 
103 1 -0.0166995 -0.0392371 0.00289527 0 0 0 0.0321856 0.058159 -0.0135004 -0.0486378 0.0171536 -0.0708867 2.36274 11.9383 7.51717 0.0025 
438 1 -0.0124245 -0.0365156 0.00307587 0 0 0 0.142261 -0.186792 0.0583907 0 0 -0.00160516 13.4016 28.0682 -24.8676 0.0025 
167 1 -0.00759594 -0.0378107 0.00283628 0 0 0 -0.0487516 -0.0163855 -0.0357387 -0.0478833 0.0923797 -0.00115734 -25.0285 12.6533 -15.5414 0.0025 
85 1 -0.00206936 -0.0386058 0.00246501 0 0 0 0.0370756 0.0206268 0.0238495 -0.0017047 -0.00130095 0.0412829 5.39412 -3.02068 4.9779 0.0025 
268 1 0.0050057 -0.0379329 0.00262109 0 0 0 0.0365477 -0.0861981 0.0699123 0.0451844 -0.0350337 -0.00381489 3.36058 -18.6826 18.8041 0.0025 
126 1 0.0108044 -0.0369475 0.00247265 0 0 0 -0.0747358 -0.0183239 -0.0875002 0.0011819 0.00102274 0.0296542 -11.4359 -8.31976 12.4248 0.0025 
101 1 0.0164692 -0.0389071 0.00249597 0 0 0 0.0526786 0.0942043 0.0055412 -3.54984e-05 -7.36801e-05 3.05553e-05 8.92629 -1.38152 6.77153 0.0025 
309 1 0.0296466 -0.0361452 0.00248931 0 0 0 -0.018665 0.0190128 0.115993 0.000109609 0.000273608 0.00428977 -16.3412 -3.9948 -1.0659 0.0025 
10 1 -0.0330328 -0.0341603 0.00304904 0 0 0 0.0316482 0.112585 0.0553149 0.00863946 0.00512572 -0.00202991 1.49141 16.7138 -3.57653 0.0025 
244 1 -0.0282744 -0.0356661 0.00250853 0 0 0 -0.0211219 0.00412392 0.0700907 0 0 -0.00160516 -4.86729 -6.58113 8.17136 0.0025 
81 1 -0.0162799 -0.0333814 0.00251419 0 0 0 -0.0821973 -0.00551883 0.0850159 0 0 -0.00160516 -2.44226 1.1506 4.24936 0.0025 
291 1 -0.00883031 -0.032922 0.00256671 0 0 0 0.0286307 0.0950188 0.0127617 0.0024802 -0.00205244 -0.00213363 34.396 -12.3111 -8.13446 0.0025 
295 1 -0.00394532 -0.0339708 0.00283046 0 0 0 0.184294 0.0639283 -0.0731081 0 0 -0.00160516 3.51154 -11.4633 -8.24676 0.0025 
68 1 0.00124844 -0.0347189 0.00274484 0 0 0 0.00382669 0.116991 0.0150153 -0.0451844 0.0350337 0.000604572 14.1744 1.94981 5.89528 0.0025 
234 1 0.0151244 -0.0332501 0.0029018 0 0 0 -0.0813122 -0.0168421 -0.10178 -0.00172393 0.000623122 -0.00147327 -28.5615 -3.27594 -3.40135 0.0025 
213 1 0.0198771 -0.0347771 0.00271651 0 0 0 -0.124128 0.0521205 -0.0214543 0.000730188 0.000325609 -0.00298046 -10.2353 -7.81957 16.5368 0.0025 
134 1 0.0249075 -0.0342945 0.00254197 0 0 0 -0.105548 0.110767 -0.123587 0 0 -0.00160516 25.8294 23.5569 -23.7903 0.0025 
369 1 0.0343697 -0.0322267 0.00256269 0 0 0 -0.100537 0.012084 -0.0915035 -0.00762362 -0.00776234 -0.0213301 -17.8873 40.7737 -14.8869 0.0025 
306 1 -0.0367486 -0.0301009 0.00256079 0 0 0 -0.01562 0.0612204 0.0237371 0.000657158 0.000486122 -0.00159898 31.8246 3.52683 -28.7534 0.0025 
266 1 -0.0308578 -0.0296898 0.00264955 0 0 0 -0.0274017 0.0429251 -0.00478037 0.00315372 0.00633637 -0.00182494 11.1098 -45.6731 4.86465 0.0025 
113 1 -0.0259678 -0.0310383 0.00248236 0 0 0 0.0127829 -0.053179 -0.0233553 -0.01278 -0.0401498 -0.0480913 7.56934 1.88759 23.0889 0.0025 
265 1 -0.0125376 -0.0296378 0.00319147 0 0 0 0.0390645 0.122563 -0.00191789 -0.0024802 0.00205244 -0.00107669 21.8134 6.26211 26.315 0.0025 
115 1 -0.00507173 -0.0289952 0.0025589 0 0 0 -0.0590189 -0.0214847 -0.283805 -0.00764152 -0.00820831 -0.0082463 -3.15171 54.9434 31.2272 0.0025 
225 1 -5.82881e-05 -0.0298402 0.00254055 0 0 0 -0.00829147 0.0398373 0.0421654 0 0 -0.00160516 4.81262 -15.1201 -31.4951 0.0025 
30 1 0.00513361 -0.0305917 0.00244806 0 0 0 -0.0450574 0.0464203 0.0292391 0.00377418 -0.00344337 0.0745159 -4.88443 7.15874 18.2463 0.0025 
220 1 0.0100796 -0.0319159 0.00259739 0 0 0 -0.187688 0.0271762 -0.108608 0 0 -0.00160516 -11.8472 -19.7735 -9.24416 0.0025 
440 1 0.0188032 -0.0293502 0.00253033 0 0 0 -0.106878 0.167095 0.0595511 0.00438072 -0.0331223 -0.00341125 -17.2678 -1.49895 -8.46194 0.0025 
13 1 0.0238579 -0.0293262 0.00258509 0 0 0 -0.0260848 0.000857554 0.181892 -0.0283988 -0.0228992 -0.0701023 -14.166 -6.91318 0.979505 0.0025 
66 1 0.0288554 -0.0309825 0.00263432 0 0 0 0.0708116 0.271877 0.183449 0 0 -0.00160516 -11.2809 -25.6627 6.05202 0.0025 
205 1 0.0379692 -0.0285195 0.00257849 0 0 0 0.0231178 0.0695873 0.0683589 0 0 -0.00160516 -6.49814 7.03512 -15.9831 0.0025 
296 1 -0.0396245 -0.0259022 0.00259406 0 0 0 0.044734 0.0492999 0.0166385 0 0 -0.00160516 -10.9408 -4.10342 -30.5621 0.0025 
195 1 -0.0273439 -0.0258436 0.00251186 0 0 0 -0.121159 0.109691 0.0167475 -0.0128108 0.0123585 -0.0273928 5.00407 -1.71947 5.26975 0.0025 
394 1 -0.0222959 -0.0269664 0.00248101 0 0 0 0.0295989 -0.0794041 0.0495767 -0.000608808 0.000564566 0.0150007 11.4043 -10.2011 28.3691 0.0025 
434 1 -0.0172804 -0.0280909 0.00256649 0 0 0 -0.0416742 -0.164469 0.0117237 0 0 -0.00160516 -17.4188 13.3213 29.0819 0.0025 
286 1 -0.00905709 -0.025953 0.00321019 0 0 0 -0.0496647 -0.0373094 0.0416281 -0.000115235 0.000102078 -0.00191041 12.9818 5.26464 12.2633 0.0025 
346 1 0.0140122 -0.0278549 0.00253719 0 0 0 0.232087 0.00722184 0.11671 0 0 -0.00160516 14.1105 35.2898 0.561227 0.0025 
304 1 0.0281128 -0.0255252 0.0025436 0 0 0 0.0538671 0.106848 0.0663344 -0.0135737 -0.0821649 0.000534347 -31.9747 5.60754 -22.0897 0.0025 
285 1 0.0328539 -0.0274575 0.00258859 0 0 0 0.0275477 0.0763689 -0.0382094 0 0 -0.00160516 1.81944 18.1046 -5.80654 0.0025 
58 1 -0.0424431 -0.0213694 0.00248979 0 0 0 -0.0271806 -0.0281791 -0.0497157 0.0160208 0.00911358 0.00626211 -4.36755 1.84955 24.106 0.0025 
404 1 -0.0373653 -0.021334 0.00252192 0 0 0 -0.101365 -0.0268917 -0.0504603 0 0 -0.00160516 1.60801 41.215 -32.8581 0.0025 
365 1 -0.0334768 -0.0248301 0.00256903 0 0 0 -0.00500652 -0.0425421 0.0662619 0 0 -0.00160516 10.9519 3.29454 31.5711 0.0025 
15 1 -0.023917 -0.0222316 0.00285235 0 0 0 -0.0299712 0.0574726 -0.0126629 0.00271245 0.00308095 -0.00146179 -31.5844 27.5868 -18.9936 0.0025 
421 1 -0.0189054 -0.023206 0.00247411 0 0 0 -0.0856707 -0.164547 0.031951 0.00104943 0.00116336 0.0254933 0.90185 -6.64798 26.8829 0.0025 
374 1 -0.0140373 -0.0241855 0.00305326 0 0 0 0.0857851 -0.137297 0.0767309 -0.000519337 8.09276e-05 -0.00165363 17.5425 -12.9011 -8.65264 0.0025 
334 1 -0.00530773 -0.0225241 0.00252245 0 0 0 -0.0452548 0.0217504 0.047932 -0.0159164 -0.02141 -0.028824 -18.9319 -0.309224 -5.36479 0.0025 
87 1 0.000749305 -0.0224589 0.00264076 0 0 0 0.0190935 0.000925738 -0.0947893 -0.0018264 0.00141171 -0.017516 -2.13323 -4.04793 -4.17563 0.0025 
32 1 0.00982574 -0.024034 0.00289423 0 0 0 0.145901 -0.0258939 -0.102591 0.0150902 -0.0100824 -0.0198303 -26.9948 6.49197 15.1492 0.0025 
75 1 0.0141774 -0.0214262 0.00256611 0 0 0 0.0524117 -0.0023029 0.0667767 0 0 -0.00160516 -4.89465 22.7438 -38.4921 0.0025 
424 1 0.0182506 -0.0244185 0.0025709 0 0 0 -0.0480514 0.203898 -0.0617754 -0.00438072 0.0331223 0.000200939 6.76973 7.045 0.298105 0.0025 
307 1 0.0234544 -0.0235981 0.00278701 0 0 0 -0.0133822 0.198814 -0.130126 0 0 -0.00160516 41.5609 -6.00292 14.6481 0.0025 
44 1 0.040754 -0.0243298 0.00256511 0 0 0 -0.0242449 -0.127769 -0.0830461 0 0 -0.00160516 12.6891 -8.38363 11.8596 0.0025 
187 1 -0.02869 -0.0207552 0.00255665 0 0 0 -0.0451586 0.0292492 -0.0956362 0 0 -0.00160516 11.4586 -2.02135 -10.4104 0.0025 
293 1 -0.0148279 -0.0188362 0.00246079 0 0 0 -0.032494 0.160429 -0.122481 -0.00152272 -0.00219422 0.0518113 -1.80863 -56.7161 2.54968 0.0025 
433 1 -0.0101129 -0.0208148 0.00264355 0 0 0 0.0160819 -0.0628858 0.0659153 0 0 -0.00160516 3.28137 -37.7801 -14.0744 0.0025 
273 1 0.00846372 -0.0189263 0.00281948 0 0 0 0.00370391 0.0506151 0.0506206 0.0038205 -0.0026213 -0.0018996 -13.8624 19.0383 23.0129 0.0025 
366 1 0.0191424 -0.0190125 0.00247429 0 0 0 0.00571941 -0.0249488 -0.0416712 -0.00135813 0.000316 0.026283 5.90437 -15.427 1.35876 0.0025 
159 1 0.024641 -0.0186279 0.003188 0 0 0 0.102905 0.0167023 0.120513 0 0 -0.00160516 -37.3068 14.2357 17.3178 0.0025 
149 1 0.0291567 -0.0207046 0.00244892 0 0 0 0.109127 -0.132568 0.00382246 0.0107904 0.0847714 0.0725208 -16.703 -34.2681 64.9317 0.0025 
183 1 0.0333823 -0.0177486 0.0024697 0 0 0 -0.0187178 7.22096e-06 -0.137034 0.000833569 0.00178867 0.0350643 -11.4937 -2.60391 28.6976 0.0025 
448 1 0.0379832 -0.0200117 0.00250813 0 0 0 -0.0695016 0.0817973 0.135855 -0.00274047 -0.00573086 -0.00215233 -9.74623 6.52626 -13.6648 0.0025 
339 1 0.043091 -0.0198438 0.00251476 0 0 0 0.101945 0.161912 0.160054 0 0 -0.00160516 6.50431 8.92315 -1.23194 0.0025 
231 1 -0.0443363 -0.0163615 0.00248298 0 0 0 -0.194054 0.183515 0.038598 0.000576391 -0.000410747 0.0125503 -16.8213 1.86993 -2.54319 0.0025 
9 1 -0.0351709 -0.0165887 0.0024624 0 0 0 -0.00129175 0.00152506 -0.0659122 0.0399791 0.00609393 0.0329008 8.91909 10.6464 34.2156 0.0025 
445 1 -0.0301888 -0.0152673 0.00329938 0 0 0 -0.0868481 -0.0245293 -0.0550356 0.0211681 -0.0236485 0.00345735 2.71429 14.4295 -25.1777 0.0025 
6 1 -0.0252541 -0.017069 0.00302763 0 0 0 -0.00731612 0.0853149 0.118561 -0.0366334 0.00701791 0.00185348 16.0406 -1.16633 -9.90106 0.0025 
380 1 -0.0204617 -0.0182253 0.00248936 0 0 0 0.0564761 -0.0428469 0.0410096 0.0363878 -0.00678635 0.00168706 3.55541 6.98843 14.1081 0.0025 
40 1 -0.00625532 -0.0172446 0.00301524 0 0 0 0.00939789 0.0420211 0.00938862 0 0 -0.00160516 1.96078 -6.60604 0.891965 0.0025 
52 1 -0.000681484 -0.0175505 0.00248164 0 0 0 0.017951 -0.167497 -0.00817392 -8.66325e-05 0.000823691 0.0149595 -18.9891 -1.86294 4.95813 0.0025 
405 1 0.00427386 -0.0162176 0.0029278 0 0 0 -0.0283425 -0.0404661 -0.123748 -0.0038205 0.0026213 -0.00131072 3.89207 -6.01818 -34.3881 0.0025 
379 1 0.0127889 -0.0164302 0.00251525 0 0 0 0.0497901 -0.112046 0.0236108 0 0 -0.00160516 -1.50678 2.03247 13.4532 0.0025 
20 1 0.0287995 -0.0152555 0.00248893 0 0 0 -0.0888244 0.0309639 -0.0622716 0.0167612 -0.00715225 0.00726457 -19.8609 15.1328 -0.416812 0.0025 
386 1 0.0399043 -0.015426 0.00289192 0 0 0 0.0479093 0.163174 0.096624 0.00274047 0.00573086 -0.00105798 7.87302 26.3233 -42.4035 0.0025 
196 1 -0.0448129 -0.0113322 0.00262431 0 0 0 -0.097981 0.0641137 0.0581595 -0.0266622 -0.00555695 -0.0345123 1.4527 -1.90512 -42.6255 0.0025 
74 1 -0.0386501 -0.0123817 0.00254955 0 0 0 0.11336 0.0565001 -0.209236 0 0 -0.00160516 14.1857 -3.73205 -7.79674 0.0025 
449 1 -0.0336342 -0.0117602 0.00261436 0 0 0 -0.0644914 0.00559207 -0.0203631 -0.0211681 0.0236485 -0.00666767 -14.7949 -4.33924 -28.6239 0.0025 
331 1 -0.0234992 -0.0123076 0.00247124 0 0 0 0.118893 0.019645 -0.00959502 -0.00553103 0.000717097 0.0264449 13.9291 23.9163 2.34314 0.0025 
326 1 -0.0167734 -0.0138403 0.00249014 0 0 0 0.140259 -0.0407843 0.18835 0.000273769 -0.00062337 0.00255139 -0.369035 34.4519 -15.3035 0.0025 
158 1 -0.00984898 -0.0134002 0.00255482 0 0 0 -0.0863951 -0.0753635 0.0198104 -0.00579012 -0.0517815 -0.00334815 -22.1619 14.2551 -4.46292 0.0025 
226 1 -0.00506464 -0.0119249 0.00249938 0 0 0 0.0159095 0.172145 0.0891927 -3.59288e-06 -2.13318e-05 -0.0020378 -1.67369 -4.95258 -22.0452 0.0025 
22 1 -3.21843e-05 -0.0124291 0.00276543 0 0 0 -0.0956981 -0.0723188 0.0653865 -0.00394425 0.0177153 -0.0588175 43.7232 29.1371 -5.26474 0.0025 
7 1 0.00851188 -0.0134451 0.0024927 0 0 0 0.0855657 -0.0204255 0.0200532 -0.0193008 -0.00745845 -0.0104634 -0.412624 14.5888 12.2099 0.0025 
142 1 0.0188433 -0.0137152 0.00249702 0 0 0 -0.0842229 0.176027 0.0283448 1.00286e-05 -3.98273e-05 -0.000783748 -24.6238 -22.1696 30.8369 0.0025 
2 1 0.0241674 -0.0134393 0.00251097 0 0 0 -0.160957 -0.115411 0.0909194 -0.0263835 -0.000285598 -0.0262373 -16.4641 3.80886 -23.9892 0.0025 
313 1 0.0354654 -0.0129978 0.00249488 0 0 0 0.0322221 0.156048 -0.0975492 0.0073885 -0.0379003 -0.0401085 24.9729 -33.1297 -26.6619 0.0025 
426 1 0.0422727 -0.0109658 0.00253164 0 0 0 0.0328542 0.0158243 0.057736 -0.0101793 -0.00561743 -0.00305195 -8.08152 13.6399 -25.1203 0.0025 
238 1 -0.0415368 -0.00720071 0.00250718 0 0 0 0.0220139 0.0163564 -0.0272778 0.0148832 -0.0330438 -0.00327013 -14.4695 0.793038 -28.407 0.0025 
949 1 -0.0367037 -0.0078594 0.00367217 0 0 0 -0.0287922 0.102025 -0.152536 -0.00394625 -0.000834996 -0.000433448 19.0935 12.6027 -0.195531 0.0025 
36 1 -0.0282374 -0.0104019 0.00285207 0 0 0 0.00588952 -0.155821 -0.0210421 0 0 -0.00160516 16.9031 -11.1723 2.529 0.0025 
252 1 -0.0192818 -0.00952121 0.00258854 0 0 0 0.127048 0.0529656 0.00236905 0.00351129 -0.0164046 -0.0206098 -7.27164 15.7549 10.3623 0.0025 
117 1 -0.0140624 -0.00955481 0.00258154 0 0 0 0.115007 0.0642487 -0.197167 -0.0119924 -0.00243634 -0.000807343 -1.11501 -4.18033 11.1069 0.0025 
190 1 -0.00919553 -0.00849487 0.00249614 0 0 0 0.03939 0.0683032 -0.14555 0.0177624 0.0540709 0.00230603 13.6677 9.919 -12.6257 0.0025 
240 1 0.00451121 -0.00999143 0.00287256 0 0 0 -0.134377 0.164087 0.0534796 0.0245565 -0.0193093 -0.00161576 -5.17899 28.2589 15.5103 0.0025 
24 1 0.00994028 -0.00811785 0.00246144 0 0 0 0.0253239 -0.092229 0.0325701 -0.000913902 0.00230052 0.0479029 7.11224 -1.73622 20.3647 0.0025 
233 1 0.016238 -0.00916188 0.00282991 0 0 0 -0.0738223 -0.0330856 0.110447 -0.031396 -0.0688612 -0.000239238 -24.6036 -22.5291 13.7083 0.0025 
338 1 0.0214908 -0.00863843 0.0024371 0 0 0 -0.143133 -0.0787808 -0.163516 -0.000301066 -0.00950009 0.104984 7.1677 4.90412 -4.15124 0.0025 
92 1 0.0333034 -0.00678867 0.00252624 0 0 0 -0.0800341 0.184441 0.0437506 0.00630574 -0.00878157 -0.0293018 -28.3797 -14.0161 21.2391 0.0025 
237 1 0.0382358 -0.00752743 0.00258031 0 0 0 -0.0281885 -0.0143355 -0.0480516 0.00573532 -0.000593988 -0.00142314 -9.76224 9.07374 8.16815 0.0025 
362 1 0.0466414 -0.0085719 0.00259157 0 0 0 -0.007427 -0.0581352 -0.0212825 0.0105696 0.00569793 -0.000865531 27.8825 -20.4741 0.537558 0.0025 
292 1 -0.0465347 -0.00649248 0.00253349 0 0 0 0.0191247 0.0483199 -0.00818495 0 0 -0.00160516 3.82653 12.6136 9.60393 0.0025 
367 1 -0.0319359 -0.00702868 0.00245279 0 0 0 0.0260897 -0.0696503 0.0298233 0.003844 0.00419836 0.0645215 12.3072 9.54135 5.39897 0.0025 
342 1 -0.027742 -0.00376671 0.00246771 0 0 0 0.0935943 0.00533102 -0.0807451 -0.00196362 -0.000280449 0.0380658 3.40348 -1.18244 -18.9567 0.0025 
49 1 -0.0238711 -0.00705177 0.00279432 0 0 0 0.0348524 0.0336617 0.0125 -0.0146651 -0.0248879 -0.000432137 -1.03335 4.59809 -10.7118 0.0025 
328 1 -0.0167803 -0.00515474 0.00253698 0 0 0 0.0700138 -0.0173024 0.0390055 -0.0196487 -0.00444154 -0.00130328 -6.05867 7.42314 1.4579 0.0025 
278 1 -0.011987 -0.00382204 0.00251397 0 0 0 -0.188556 0.158026 0.0675311 0.0190723 0.0107271 -0.0126631 13.939 2.65962 4.93652 0.0025 
61 1 -0.00430426 -0.0067755 0.00263869 0 0 0 0.00122632 -0.0551029 0.0986199 -0.00897755 0.000563199 -0.00167683 6.95918 40.2138 -25.8158 0.0025 
347 1 0.00067877 -0.00684026 0.00265106 0 0 0 0.120746 0.0400134 -0.123942 -0.0159843 0.0186218 -0.00205099 -17.8376 43.5649 12.0677 0.0025 
154 1 0.0122358 -0.00328 0.00280723 0 0 0 0.01325 0.0122636 -0.0204709 0 0 -0.00160516 6.95562 39.5257 4.74881 0.0025 
80 1 0.0182554 -0.00466986 0.00249612 0 0 0 0.00190051 0.0144728 0.0036912 0.028926 0.0211798 -0.00144317 5.26947 11.06 -33.5554 0.0025 
971 1 0.0236654 -0.00415855 0.00253137 0 0 0 -0.0946065 -0.112062 -0.161757 -0.0220499 -0.0748037 -0.00162076 48.8293 27.8318 -7.53363 0.0025 
1046 1 0.0289216 -0.00436766 0.00251022 0 0 0 -0.0506442 -0.0270403 0.0356343 0.00286175 -0.0313042 -0.0253476 -5.56827 -15.2777 0.999184 0.0025 
945 1 -0.0433538 -0.00258741 0.00266534 0 0 0 0.103536 0.06286 -0.0660688 -0.0148832 0.0330438 5.98123e-05 5.79837 -17.5142 -4.07552 0.0025 
1341 1 -0.0388725 -0.000284807 0.00245303 0 0 0 0.0346296 -0.0550213 -0.0453395 -0.000109417 0.0235355 0.0325089 23.2822 5.66499 -5.40344 0.0025 
98 1 -0.0344427 -0.00265239 0.00243808 0 0 0 0.095757 0.00445207 0.0462874 -0.00476779 0.00166506 0.0993983 -6.56272 25.1582 9.24399 0.0025 
1337 1 -0.0212196 -0.00285154 0.00278879 0 0 0 0.0301283 -0.0905636 0.0831761 0.0196273 0.0214655 -0.022667 32.6347 7.51318 -6.05534 0.0025 
1127 1 -0.0154724 -9.28449e-05 0.00252526 0 0 0 -0.0404255 0.000150256 0.0490619 -0.0123038 -0.0486499 -0.00128145 -6.30961 -23.8345 -7.33644 0.0025 
250 1 -0.00394481 -0.00147335 0.00248095 0 0 0 0.108971 -0.103224 -0.0240226 -0.000468152 0.000752496 0.0161196 -28.7185 0.102408 17.9253 0.0025 
21 1 0.00118 -0.00163844 0.00264795 0 0 0 0.0277603 0.0326679 0.0660847 0.0444495 0.0312592 -0.0767325 -0.29732 -11.6651 1.44673 0.0025 
368 1 0.0352221 -0.00206512 0.00280339 0 0 0 0.0429032 -0.0767714 -0.139054 0.0155954 -0.00766237 0.000249258 11.2806 -40.4024 10.57 0.0025 
425 1 0.0402686 -0.00271194 0.00299467 0 0 0 -0.0881726 -0.124241 -0.147273 -0.00039181 -0.000454595 -0.00153041 3.51029 0.882654 -18.3215 0.0025 
305 1 0.0457134 -0.00344756 0.00246585 0 0 0 0.0342096 -0.0318848 -0.0144721 0.00943286 -0.014964 0.0388612 4.47888 14.008 -23.914 0.0025 
189 1 -0.000139931 -0.0474462 0.00739258 0 0 0 0.0641664 -0.00362985 0.126262 0 0 -0.00160516 9.73275 -34.4274 9.94365 0.0025 
150 1 0.00364761 -0.0472089 0.00381175 0 0 0 -0.0836813 -0.0298006 0.0440724 0.0216947 -0.0286385 0.00924171 -13.7723 -26.9315 -19.2847 0.0025 
352 1 -0.0126803 -0.0451274 0.00579342 0 0 0 0.0615297 0.0254089 -0.123247 -0.0312716 -0.0189546 -0.00859202 -12.2899 5.9292 -24.8202 0.0025 
241 1 0.00950738 -0.0465973 0.0047085 0 0 0 0.010731 0.0909842 0.110045 -0.0168837 0.087506 -0.00595827 22.9906 18.3336 -15.6823 0.0025 
411 1 -0.0195725 -0.0406678 0.00678155 0 0 0 -0.0519993 -0.0201314 0.107334 0.00425093 0.00452827 0.00850864 -23.9359 19.9654 -5.85034 0.0025 
8 1 -0.0140877 -0.0403873 0.00691587 0 0 0 -0.147004 -0.115777 -0.0113378 0.0486378 -0.0171536 0.0676764 2.82076 -14.843 -47.2115 0.0025 
444 1 -0.00849937 -0.0427137 0.00693459 0 0 0 -0.010195 0.0208219 -0.175111 0.0312716 0.0189546 0.0053817 6.21893 7.8031 37.6628 0.0025 
60 1 0.009172 -0.0413448 0.00715939 0 0 0 -0.0340081 -0.0751953 0.0579927 0 0 -0.00160516 -2.21104 -5.95555 -6.79401 0.0025 
16 1 -0.0182527 -0.0358558 0.00650106 0 0 0 0.0783201 -0.0503218 -0.124824 0.000110545 0.000442509 -0.00161051 -5.75995 -4.71817 -17.2884 0.0025 
70 1 -7.91979e-05 -0.0375304 0.00706475 0 0 0 0.200961 0.0779385 -0.0625008 -0.000344822 0.00211622 -0.00578608 -34.233 -20.0239 -35.2909 0.0025 
589 1 0.0175578 -0.0360739 0.00728523 0 0 0 -0.0224807 0.0779007 -0.0959683 0 0 -0.00160516 41.4239 -14.504 -4.48485 0.0025 
332 1 0.0224662 -0.0371815 0.0062438 0 0 0 0.0141287 0.0352791 0.0971305 0.000993739 -0.000948731 -0.00036174 12.408 31.4687 9.24574 0.0025 
186 1 0.028216 -0.0379261 0.00744114 0 0 0 0.101622 0.176955 0.0841064 0 0 -0.00160516 37.4019 22.3527 -16.8131 0.0025 
348 1 -0.0243565 -0.0358376 0.00627225 0 0 0 0.0362246 -0.00881953 0.0751127 -0.0108981 0.0970848 -0.00686868 -12.2002 -5.58953 23.9324 0.0025 
160 1 0.00307699 -0.03229 0.0067444 0 0 0 -0.146492 0.0156345 0.0897417 -0.0131214 0.00433372 -0.00269898 -4.7292 -7.76084 28.0609 0.0025 
170 1 0.00732371 -0.0346865 0.00572261 0 0 0 -0.0411017 0.0638867 0.104428 0.00881221 -0.00540175 -0.0041561 -20.5933 21.7174 5.41855 0.0025 
357 1 0.0123324 -0.0344173 0.0068963 0 0 0 -0.0361901 -0.187049 -0.0484922 0 0 -0.00160516 -20.691 -24.5633 -9.92228 0.0025 
262 1 0.0220162 -0.0319617 0.00652716 0 0 0 0.154248 0.176732 -0.071481 0 0 -0.00160516 -12.6705 14.644 60.3315 0.0025 
11 1 -0.0346143 -0.0296353 0.00725207 0 0 0 -0.121709 0.0419826 -0.192865 0.0115085 -0.00654448 -0.00197205 -55.7802 -39.4824 34.6007 0.0025 
314 1 -0.0288433 -0.0323453 0.00648785 0 0 0 -0.121143 0.0215245 0.223624 0 0 -0.00160516 -11.8642 28.4647 -24.7334 0.0025 
182 1 -0.0212789 -0.0322686 0.00363558 0 0 0 0.100629 0.0294727 -0.142724 0.0093756 -0.00266619 0.00119158 -5.89261 -21.8345 -12.443 0.0025 
152 1 -0.0168624 -0.0308965 0.00715894 0 0 0 -0.0772519 0.0426511 -0.146934 0 0 -0.00160516 -9.3607 0.591791 -45.4807 0.0025 
294 1 -0.0309816 -0.0258155 0.00721468 0 0 0 -0.057603 0.0183654 0.128333 0.000164611 0.000120952 -0.00162663 -15.8448 25.661 -27.4316 0.0025 
288 1 -0.0164395 -0.0257861 0.00758687 0 0 0 0.000851925 -0.0670095 0.190016 0 0 -0.00160516 26.8172 -11.4859 24.8522 0.0025 
164 1 -0.00219843 -0.0259927 0.00530086 0 0 0 -0.0254034 -0.075203 0.025553 -0.00578001 0.0311995 -0.0207352 -4.09703 0.0997311 5.77179 0.0025 
76 1 0.00409128 -0.0271841 0.0059491 0 0 0 -0.107335 0.00119006 -0.163816 -0.000366057 0.00157344 2.1889e-05 -30.8209 -20.4828 -24.4657 0.0025 
441 1 0.00967523 -0.0280251 0.0060329 0 0 0 -0.0427445 -0.0753516 -0.109516 -0.00202802 -0.00307496 -0.0131316 -15.9798 -42.8946 -31.7249 0.0025 
277 1 0.0151186 -0.026204 0.00733809 0 0 0 -0.0140858 -0.0479024 0.0330639 0 0 -0.00160516 -66.7073 -48.9802 12.8506 0.0025 
323 1 0.020695 -0.0267989 0.00664104 0 0 0 0.00734449 0.0459241 0.00218523 0 0 -0.00160516 -19.4648 16.7043 -6.63209 0.0025 
192 1 -0.0269823 -0.022828 0.00693773 0 0 0 0.0617216 -0.0276233 -0.0111686 -0.0131752 0.00209398 -0.0274444 35.32 -43.5988 -3.57731 0.0025 
163 1 -0.0215695 -0.0246804 0.00702123 0 0 0 -0.0705723 -0.0332085 0.0262795 0 0 -0.00160516 5.20748 25.0536 -10.9883 0.0025 
145 1 -0.0131077 -0.0214719 0.00715921 0 0 0 -0.00270079 -0.0347148 0.0145709 0 0 -0.00160516 2.41749 -18.5243 40.1502 0.0025 
165 1 -0.00808047 -0.0225456 0.00693912 0 0 0 -0.040649 -0.208383 0.154448 0 0 -0.00160516 41.0027 11.1737 -6.8056 0.0025 
383 1 0.00539609 -0.0225023 0.00455949 0 0 0 0.00511864 0.045038 0.0192573 -0.00363535 0.00600498 -0.00621531 9.1265 15.977 2.7844 0.0025 
269 1 0.0209129 -0.0212408 0.00685676 0 0 0 -0.0984892 0.109959 -0.164626 0 0 -0.00160516 -17.9135 15.1132 -17.9668 0.0025 
391 1 0.0262454 -0.0220916 0.00691409 0 0 0 -0.0362082 0.0758621 0.0372691 0 0 -0.00160516 56.5106 -13.6655 -22.6063 0.0025 
435 1 0.0309524 -0.0240635 0.00655063 0 0 0 0.157093 0.0982641 -0.103819 0 0 -0.00160516 -14.6325 -2.37036 -19.7943 0.0025 
132 1 0.0358293 -0.0240302 0.00500885 0 0 0 -0.0677782 0.0497852 0.0672519 -7.45594e-05 5.16016e-05 -0.00166227 0.317926 -10.5911 -15.3476 0.0025 
382 1 -0.0330448 -0.020211 0.00523889 0 0 0 -0.0125104 -0.0781258 -0.0185129 0.0162347 0.0177916 -0.0204525 14.4177 -29.9033 -8.21969 0.0025 
120 1 -0.022789 -0.0188569 0.00728977 0 0 0 0.163329 0.0494939 0.0405668 0 0 -0.00160516 1.80448 -30.9933 -22.5633 0.0025 
41 1 -0.00323198 -0.0199382 0.00621033 0 0 0 -0.0097262 -0.0164666 0.0728582 0.0159141 0.021409 0.0256032 -16.549 6.37924 -8.33909 0.0025 
353 1 0.00174533 -0.0176812 0.00705165 0 0 0 0.0324246 0.0185493 0.0950784 0 0 -0.00160516 26.0957 49.8177 -43.8491 0.0025 
121 1 -0.039718 -0.0172413 0.00432425 0 0 0 -0.0437775 0.0621888 0.0525356 0.00388563 0.00383769 -0.0178068 21.938 13.1036 -15.2546 0.0025 
361 1 -0.0330194 -0.0153854 0.00758356 0 0 0 0.0138569 0.0771643 0.0556885 0.015427 -0.0166273 0.000403898 20.4861 -59.5736 -11.5752 0.0025 
23 1 -0.0104468 -0.0169853 0.00600018 0 0 0 -0.12082 0.0573751 -0.0210145 0 0 -0.00160516 5.65144 -30.0598 -22.8871 0.0025 
321 1 -0.00247475 -0.0145263 0.00654496 0 0 0 0.0940708 0.197142 -0.0146975 -0.0166197 -0.015586 0.0230423 22.4398 -2.4374 -11.2743 0.0025 
54 1 0.016385 -0.0161348 0.00618837 0 0 0 0.0245124 0.0292648 0.225607 0.0124362 -0.000218315 -0.00723935 16.0565 2.50908 4.68811 0.0025 
1 1 0.0361864 -0.0162465 0.00652169 0 0 0 -0.00397275 -0.0644364 0.0085946 -0.0314241 -0.00230845 -0.0330677 44.5282 -25.2827 21.1787 0.0025 
104 1 0.0450388 -0.0152121 0.00369541 0 0 0 0.168037 -0.0351955 -0.0112305 -0.0504946 0.015402 0.000518306 0.259997 23.259 11.3455 0.0025 
336 1 -0.0415613 -0.0105759 0.00628794 0 0 0 -0.00769231 -0.0138388 -0.040289 0.0487474 0.022859 0.0252752 21.5735 -0.0829288 -16.2858 0.0025 
436 1 -0.0264813 -0.0122677 0.00714888 0 0 0 -0.0959352 -0.0744492 -0.135895 0 0 -0.00160516 7.58351 12.67 -37.9524 0.0025 
236 1 -0.0202992 -0.01369 0.00603889 0 0 0 0.00605163 0.028671 0.0620291 -0.00258648 -0.00993159 7.9098e-05 -7.32653 34.0453 -10.1529 0.0025 
442 1 0.0027448 -0.0125089 0.00687456 0 0 0 -0.0102228 0.00801789 -0.148545 0.020564 -0.00212934 0.0309597 -16.6715 2.9888 0.189532 0.0025 
384 1 0.0124395 -0.0116876 0.00498092 0 0 0 0.00366633 0.0170748 0.0065688 0.0528629 0.00895545 -0.00433424 34.2571 -35.5017 -1.60159 0.0025 
59 1 0.0396635 -0.0113778 0.00677319 0 0 0 -0.0435654 0.0523606 0.0124534 0.000443762 -0.0338537 -0.042692 26.2527 -12.8145 -10.8235 0.0025 
65 1 -0.00164277 -0.00862128 0.00676349 0 0 0 0.0391673 -0.0544108 0.0175582 0 0 -0.00160516 7.33505 -50.2876 -37.0739 0.0025 
337 1 0.0301214 -0.010463 0.0037903 0 0 0 0.0618811 0.0194455 -0.0649003 0 0 -0.00160516 12.1562 28.5866 12.547 0.0025 
124 1 0.0347422 -0.00990095 0.00628418 0 0 0 0.0124238 0.0507713 0.0232541 -0.00746724 0.0377495 0.0403012 16.8217 24.5424 13.8547 0.0025 
450 1 0.0457582 -0.0104918 0.00720317 0 0 0 -0.163587 0.0698361 0.00507707 0 0 -0.00160516 -3.1515 17.2181 -9.8621 0.0025 
381 1 -0.0473106 -0.00326545 0.00640969 0 0 0 -0.0507171 0.111621 -0.150676 0.000482787 -0.00898582 -0.011999 6.83341 -10.2565 13.3326 0.0025 
157 1 -0.0202655 -0.00633197 0.00626955 0 0 0 -0.0202918 -0.0293115 0.0138391 -0.0869219 -0.012073 -0.016067 6.78709 -5.79299 -15.9246 0.0025 
17 1 -0.0115086 -0.00632476 0.00679449 0 0 0 0.0417218 0.153353 -0.0583967 0.000611425 -0.000331949 -0.00253019 13.6991 6.01689 10.4414 0.0025 
248 1 -0.00803468 -0.00280274 0.00547134 0 0 0 -0.0513451 0.00317702 0.133251 0 0 -0.00160516 6.0436 3.98552 -45.4079 0.0025 
1021 1 -0.00123217 -0.00350654 0.00651684 0 0 0 -0.0186397 0.00575143 -0.0436229 -0.0444495 -0.0312592 0.0735222 -7.43704 -17.4898 -2.81074 0.0025 
38 1 0.00347382 -0.00582445 0.0066668 0 0 0 -0.00628716 0.186998 -0.0536502 -7.52367e-05 -0.000152521 -0.000532119 6.66642 12.6129 -11.0394 0.0025 
202 1 0.00658927 -0.00427785 0.00307875 0 0 0 -0.0393398 -0.0261649 -0.150804 0.000480634 0.000276886 -0.00215009 8.21383 15.4144 2.94365 0.0025 
191 1 0.0135109 -0.00667072 0.00637951 0 0 0 0.280835 0.0428434 0.0665675 0.000693262 0.000950629 -0.00446169 -35.6467 -20.0809 5.00497 0.0025 
254 1 0.02614 -0.00703788 0.00598339 0 0 0 -0.0867908 0.108382 -0.19272 0 0 -0.00160516 -14.8346 -15.9273 10.3065 0.0025 
284 1 0.0314931 -0.00551637 0.00697068 0 0 0 -0.0630052 0.0594733 0.0270443 -0.0120411 0.00937556 0.0259095 27.7736 2.5359 4.97631 0.0025 
290 1 0.0367242 -0.00515252 0.00679474 0 0 0 0.0118089 0.093384 -0.073351 0 0 -0.00160516 -3.92875 -9.03177 -19.0975 0.0025 
122 1 0.0424858 -0.00667101 0.00528821 0 0 0 -0.0599382 -0.138439 -0.0844889 0 0 -0.00160516 -15.0687 -20.8658 -33.741 0.0025 
1100 1 0.0470756 -0.00516428 0.00697778 0 0 0 -0.0985881 -0.0291112 -0.0113267 0.0010015 -0.013934 -0.021191 -16.9682 -4.89835 -11.5637 0.0025 
1189 1 -0.0433343 -0.000147127 0.00748625 0 0 0 -0.0540969 -0.0186883 0.0610872 0 0 -0.00160516 2.67985 -0.641421 -2.62745 0.0025 
42 1 -0.0393856 -0.00313996 0.00647402 0 0 0 -0.0370491 -0.0850897 -0.155067 -0.00299502 -0.0221367 0.0323809 -49.0688 -4.14163 24.1281 0.0025 
1116 1 -0.0246502 -0.00309697 0.00638952 0 0 0 -0.0332982 -0.00341403 -0.0563888 -0.00949724 -0.00120965 0.00910437 2.71425 9.92576 24.9477 0.0025 
901 1 -0.0193477 -0.000592984 0.00681553 0 0 0 -0.0327573 0.0214113 0.0697529 0.0182811 0.033638 -0.0414509 -6.7461 15.6589 23.2701 0.0025 
1080 1 0.015267 -0.00126418 0.00634077 0 0 0 0.146427 0.0217376 0.0844513 0 0 -0.00160516 26.2389 -19.7831 -7.16072 0.0025 
1150 1 0.0278405 -0.00155665 0.00645803 0 0 0 0.0313973 0.0114297 0.025755 -2.69782e-05 0.0196096 0.0190795 0.328047 -23.4211 -37.5166 0.0025 
73 1 -0.00556084 -0.0471586 0.00697586 0 0 0 0.182961 0.0673421 -0.0774742 -0.0134359 -0.0193899 -0.00207535 -21.7471 -16.7578 -22.1197 0.0025 
257 1 0.00466042 -0.0470523 0.00929874 0 0 0 0.00236894 0.126366 0.105266 0 0 -0.00160516 27.8295 -15.9073 10.5023 0.0025 
29 1 0.0097008 -0.0459318 0.00999477 0 0 0 0.215571 0.0587113 -0.0365093 0.00315396 -0.00319047 -0.00334342 -19.4193 27.169 24.4272 0.0025 
88 1 -0.0158436 -0.0444281 0.00965405 0 0 0 -0.112523 0.130015 0.0683016 -0.0269482 -0.02595 -0.0191277 5.20545 -14.599 -3.74202 0.0025 
86 1 -0.00924978 -0.0462755 0.0104227 0 0 0 0.142226 0.0511594 0.0177537 0 0 -0.00160516 -21.0708 11.6365 -11.7572 0.0025 