ITEM: TIMESTEP
10400
ITEM: NUMBER OF ATOMS
1800
ITEM: BOX BOUNDS mm mm mm
-0.05 0.05
-0.05 0.05
0 0.15
ITEM: ATOMS id type x y z ix iy iz vx vy vz fx fy fz omegax omegay omegaz radius 
410 1 -0.00960653 -0.0462429 0.00239169 0 0 0 -0.135798 0.0929278 0.234009 0.0104802 -0.00973917 0.228602 -10.8005 0.138029 -15.8832 0.0025 
37 1 -0.0204499 -0.0429383 0.00324772 0 0 0 -0.190949 -0.104526 -0.101791 0.0467104 0.0875596 0.000424417 8.61028 -10.202 -67.1841 0.0025 
217 1 -0.0143017 -0.0453153 0.00464203 0 0 0 0.00967485 0.304903 -0.0504562 0.00345705 0.0121663 -0.00108901 9.01748 73.0555 41.111 0.0025 
28 1 -0.000488575 -0.0440821 0.00287698 0 0 0 -0.321184 0.240094 -0.107012 -0.00472098 0.00459875 -0.0018035 11.4155 -29.5229 -5.54265 0.0025 
150 1 0.00324489 -0.0473758 0.00306516 0 0 0 0.340771 0.171649 0.0597379 0.00472098 -0.00459875 -0.00140682 8.12613 -40.614 40.1765 0.0025 
241 1 0.00833063 -0.0468704 0.0025792 0 0 0 -0.243557 0.491412 -0.435688 -0.0702436 0.116517 0.00853 19.9079 -8.22014 25.9105 0.0025 
279 1 0.014411 -0.0452541 0.0032554 0 0 0 -0.247215 0.455932 0.0685267 -0.0241622 -0.178087 0.0204475 31.0108 21.7309 31.7731 0.0025 
413 1 -0.0256898 -0.0396454 0.00258651 0 0 0 0.141408 -0.12513 0.286252 0 0 -0.00160516 21.7 21.2594 30.3048 0.0025 
18 1 -0.00949645 -0.041272 0.00284298 0 0 0 0.218714 -0.15857 0.0791233 -0.110886 -0.0215945 -0.00232801 -37.231 -59.7331 33.3642 0.0025 
218 1 -0.00477134 -0.0399068 0.00283515 0 0 0 -0.241411 0.0356992 -0.00784189 0.110755 0.0262483 -0.000456017 30.1756 56.5431 -57.955 0.0025 
141 1 0.00531744 -0.0412634 0.00284234 0 0 0 -0.172673 -0.20614 0.128446 -0.0419099 -0.101399 -0.186084 17.0002 -14.6885 18.4792 0.0025 
230 1 0.010249 -0.0423348 0.00268518 0 0 0 -0.141926 -0.089465 -0.107318 0.0365703 0.0741026 -0.00343682 54.0783 8.41784 30.7199 0.0025 
101 1 0.0153046 -0.0404832 0.00266714 0 0 0 0.0614052 -0.279915 0.150523 0.0241622 0.178087 -0.0236578 -37.1626 -17.1789 13.5076 0.0025 
409 1 0.0194525 -0.0433099 0.00301061 0 0 0 -0.140941 0.142785 0.0951531 0 0 -0.00160516 -41.4319 -41.154 -4.8289 0.0025 
389 1 0.0239646 -0.0410413 0.00268485 0 0 0 -0.0986438 0.0686782 0.0511149 0.0806452 -0.0786366 -0.10492 9.20679 3.02399 44.1471 0.0025 
103 1 -0.0171759 -0.0389945 0.0024613 0 0 0 0.116169 0.141068 0.0204563 -0.0298474 -0.0181864 0.0464103 -29.5997 13.5345 31.1335 0.0025 
438 1 -0.0129307 -0.0364183 0.00251927 0 0 0 -0.232091 0.0894532 -0.181296 0.0588038 -0.00788134 -0.00335125 5.08239 32.3486 21.919 0.0025 
85 1 0.000372054 -0.0390493 0.00250277 0 0 0 0.0131658 -0.681582 0.0933093 0 0 -0.00160516 23.5364 36.2852 45.79 0.0025 
126 1 0.0100382 -0.0373947 0.00321187 0 0 0 0.0101088 0.0172869 0.0244453 -0.00185939 0.0199835 0.000604901 1.78282 1.28928 12.9577 0.0025 
309 1 0.030544 -0.0361859 0.0028055 0 0 0 -0.037639 0.0898287 0.0706321 0 0 -0.00160516 -8.25182 -4.78664 29.0768 0.0025 
244 1 -0.0288469 -0.035123 0.00247497 0 0 0 -0.185068 -0.083322 0.204379 0.000795707 0.000836951 0.0214915 -3.18496 -39.5426 -46.8201 0.0025 
95 1 -0.0229188 -0.0350889 0.00245122 0 0 0 0.375302 -0.279113 -0.172708 -0.0404095 -0.059235 0.0275394 28.0433 -52.3198 -9.84619 0.0025 
81 1 -0.0169364 -0.0334904 0.00255325 0 0 0 -0.0177563 -0.341018 -0.214303 -0.0305916 0.0246667 -0.00195803 -8.0861 -60.4377 30.3568 0.0025 
295 1 -0.00417622 -0.0345851 0.00258202 0 0 0 -0.0539822 0.00611891 0.0887142 0 0 -0.00160516 -32.7728 -16.1775 -28.8416 0.0025 
68 1 0.00073069 -0.0327465 0.00256681 0 0 0 -0.381517 -0.20951 0.160796 0 0 -0.00160516 -52.8222 24.627 -33.4636 0.0025 
268 1 0.00491604 -0.0362963 0.00248886 0 0 0 0.191778 -0.343878 -0.0346984 -0.000547177 0.00246172 0.00650322 -6.65464 -58.2479 -31.8135 0.0025 
213 1 0.0196285 -0.034729 0.0025261 0 0 0 -0.0952044 -0.45957 -0.414881 0.124554 0.0181132 -0.0100553 2.90161 15.4359 2.84347 0.0025 
134 1 0.0249309 -0.0358818 0.00305492 0 0 0 -0.00807752 -0.097071 0.232441 0 0 -0.00160516 32.0061 -19.165 54.3015 0.0025 
369 1 0.0340822 -0.0322132 0.00243515 0 0 0 0.0759134 0.119316 -0.289578 -0.00153782 -0.00552811 0.113155 16.6614 12.6606 -11.0123 0.0025 
10 1 -0.0348133 -0.032011 0.00264828 0 0 0 0.426801 0.0165555 0.501766 0.0148138 -0.115964 -0.019659 -23.7685 112.632 -49.9422 0.0025 
266 1 -0.0296743 -0.0293663 0.00247607 0 0 0 -0.0297289 -0.309109 -0.0779045 -0.177524 0.0359056 0.00821656 -1.3848 8.76219 62.1789 0.0025 
113 1 -0.024854 -0.0300587 0.00287478 0 0 0 -0.0833166 0.0487353 -0.305135 0.177694 -0.0346354 0.0142061 27.1311 58.5537 -78.7716 0.0025 
30 1 0.00560733 -0.0310967 0.00264977 0 0 0 -0.159717 -0.136523 -0.0623753 0 0 -0.00160516 52.2501 -23.5845 19.9919 0.0025 
220 1 0.0107623 -0.0324099 0.00262483 0 0 0 -0.240091 -0.139978 0.170574 -0.155315 0.112388 -0.0223168 0.999422 -10.2277 62.8326 0.0025 
440 1 0.0173145 -0.0294917 0.00245918 0 0 0 0.305065 0.346281 0.0271522 0.0219827 -0.0527234 0.0507888 79.5576 19.1122 -28.4443 0.0025 
66 1 0.0284262 -0.0314172 0.00246877 0 0 0 -0.0357068 0.0829784 -0.0366467 0.00814207 0.0169444 -0.111533 -6.86704 -17.2102 31.6677 0.0025 
205 1 0.0376041 -0.0286627 0.00272583 0 0 0 0.413809 -0.148254 -0.25354 0.0195344 -0.0111658 -0.0484522 20.5037 4.45384 -27.7294 0.0025 
434 1 -0.0175654 -0.0278233 0.00258713 0 0 0 -0.321319 -0.0529666 0.179634 0.0047629 -0.00153141 -0.00431424 -6.44979 25.885 40.3699 0.0025 
265 1 -0.0126208 -0.0271401 0.00260308 0 0 0 0.138384 0.332873 -0.1889 -0.150646 -0.0555245 -0.00536838 -12.0645 43.6192 43.3377 0.0025 
286 1 -0.00798113 -0.0256093 0.0028955 0 0 0 0.194324 0.152182 -0.0816252 0.144552 0.00622799 -0.0622347 31.715 52.8273 8.78025 0.0025 
225 1 0.00198675 -0.0274948 0.00248524 0 0 0 0.180463 0.25627 0.0613127 -0.000327962 -0.000443949 0.00943386 13.2015 -13.3042 -46.5265 0.0025 
346 1 0.0105916 -0.0270377 0.00307083 0 0 0 0.208642 0.155155 0.0675123 -0.0313609 -0.0154503 0.00221958 127.334 -21.5889 4.13171 0.0025 
424 1 0.0150989 -0.0250645 0.0024221 0 0 0 0.153348 -0.169139 -0.0156733 -0.0539964 0.0769578 0.133928 45.5086 55.4176 32.241 0.0025 
285 1 0.0311975 -0.0265423 0.0025152 0 0 0 0.294237 -0.0410897 -0.0141996 -0.0131068 -0.00425308 -0.0124914 -26.443 -34.5569 -12.2226 0.0025 
296 1 -0.0403436 -0.0251235 0.00247868 0 0 0 -0.182114 0.0272446 0.0539425 -0.119369 -0.0980037 0.0077721 -31.7826 14.1094 20.5846 0.0025 
404 1 -0.0365312 -0.0220716 0.00248512 0 0 0 -0.19739 0.0465956 -0.245974 0.14736 0.113107 0.0226711 62.0994 -22.3511 -59.8456 0.0025 
365 1 -0.0318223 -0.0239459 0.00288095 0 0 0 -0.285561 -0.190165 -0.094361 0 0 -0.00160516 30.9385 -0.483828 36.7945 0.0025 
195 1 -0.0266381 -0.0252684 0.00298263 0 0 0 0.159299 0.204394 -0.0241213 -0.110932 -0.105225 0.0198954 6.92345 15.9223 34.8874 0.0025 
15 1 -0.0229649 -0.0220758 0.00242292 0 0 0 0.0201594 -0.0472144 0.103649 0.101271 0.0546343 0.0978656 -17.3418 -28.9591 -43.8164 0.0025 
421 1 -0.0161121 -0.0224705 0.00250707 0 0 0 -0.313722 -0.00261926 -0.385592 -0.0878403 0.0168443 -0.112503 18.4203 3.55642 32.7433 0.0025 
32 1 0.00625614 -0.0242568 0.00249137 0 0 0 -0.1693 0.135457 -0.0310555 -0.115495 -0.052721 -0.267682 22.8452 -4.85177 -25.9476 0.0025 
159 1 0.0228151 -0.0203066 0.00272427 0 0 0 -0.186411 0.0251659 0.39847 0 0 -0.00160516 -22.6501 70.3736 30.9026 0.0025 
44 1 0.0404363 -0.0235057 0.00293854 0 0 0 0.406476 -0.1689 -0.130507 0 0 -0.00160516 58.6448 -29.4504 39.6126 0.0025 
58 1 -0.0430831 -0.0199796 0.0028728 0 0 0 -0.141816 0.0285469 -0.0488195 0 0 -0.00160516 5.30427 -15.6027 -6.36136 0.0025 
187 1 -0.0281009 -0.0202943 0.00253402 0 0 0 -0.445972 0.0182175 0.117387 0.0101549 0.000430243 -0.016519 -45.2742 -0.231796 6.31307 0.0025 
380 1 -0.0186183 -0.0175461 0.00273079 0 0 0 -0.277 0.309247 0.212992 -0.0310762 -0.00397959 -0.000575579 -13.8402 -25.3614 9.2416 0.0025 
433 1 -0.00950378 -0.020692 0.00239743 0 0 0 -0.443426 0.319956 0.12595 -0.00918298 0.0120296 0.164712 -5.71847 -27.9324 38.8313 0.0025 
334 1 -0.00380485 -0.0218912 0.00253105 0 0 0 -0.0295579 -0.230041 0.111715 0 0 -0.00160516 1.26129 44.2534 -8.50753 0.0025 
87 1 0.00182306 -0.0218228 0.00283513 0 0 0 0.00367309 -0.258714 0.15027 -0.0368865 -0.0149767 -0.0375704 -5.64924 21.1168 -39.5963 0.0025 
273 1 0.00800479 -0.0190669 0.00251578 0 0 0 -0.143723 -0.0759544 0.251912 0 0 -0.00160516 45.2953 -1.64958 74.1791 0.0025 
75 1 0.0127268 -0.02067 0.00300796 0 0 0 -0.046327 -0.0922324 -0.0430226 -0.0301567 -0.139448 0.0152609 -58.1129 20.4888 -28.9157 0.0025 
366 1 0.0178024 -0.0200074 0.00249665 0 0 0 0.551208 -0.0143526 -0.101924 -0.000110669 3.30672e-06 0.000609201 -1.86684 -34.1161 20.4635 0.0025 
149 1 0.0278791 -0.0207082 0.00249647 0 0 0 0.0657817 -0.0995658 0.47811 0.0284428 0.0790717 -0.0607077 80.9833 24.376 30.7942 0.0025 
448 1 0.0356868 -0.0211074 0.00292909 0 0 0 0.144567 -0.240047 -0.0320241 0.0665233 0.051967 -0.0649154 -5.06913 -45.7399 -1.24928 0.0025 
339 1 0.0434935 -0.0192371 0.00358824 0 0 0 -0.00798991 0.0622063 0.0398633 0.011422 0.0691731 -0.10446 -51.0114 69.6298 -20.0577 0.0025 
231 1 -0.0450416 -0.0151823 0.00363435 0 0 0 -0.181998 -0.13409 0.169104 0.0378464 0.0143961 -0.00290157 -10.2216 -36.6545 16.1481 0.0025 
9 1 -0.0333729 -0.0182621 0.00312833 0 0 0 0.302548 0.409755 -0.25515 -0.0396958 0.00759611 -0.073082 -36.9768 -4.87257 39.6587 0.0025 
445 1 -0.0284332 -0.0152053 0.00314883 0 0 0 -0.130521 0.0168036 -0.26842 -0.00822745 0.00151058 -0.0173262 -7.32592 -63.8152 19.2765 0.0025 
40 1 -0.00595518 -0.0165933 0.00246369 0 0 0 -0.0144133 0.0769095 0.151322 -0.00511536 0.0491319 -0.0902517 26.0872 36.1586 -34.1119 0.0025 
52 1 -0.000970259 -0.0172506 0.00250422 0 0 0 0.178994 -0.137178 0.522681 0 0 -0.00160516 52.8048 40.4881 -11.7873 0.0025 
405 1 0.00384901 -0.0158046 0.00268123 0 0 0 0.0792796 -0.109098 -0.0534134 0 0 -0.00160516 16.3522 7.81567 -10.8664 0.0025 
379 1 0.0135277 -0.0158802 0.00234925 0 0 0 -0.25011 0.116162 -0.3249 0.0280308 0.169615 0.305217 -8.83757 17.3476 -6.92224 0.0025 
142 1 0.0187562 -0.0150153 0.00243658 0 0 0 0.101127 -0.0571536 -0.0265538 -0.00511684 0.0014034 0.104511 9 -10.6316 29.7811 0.0025 
2 1 0.0249833 -0.0153592 0.00234911 0 0 0 0.290262 0.570569 0.103257 -0.00987869 -0.0165335 0.383593 21.0718 -33.4838 -57.5231 0.0025 
20 1 0.0300121 -0.0156663 0.00360549 0 0 0 0.104177 0.0968072 0.0780084 -0.0272233 -0.00394816 -0.0178994 -22.0812 -18.9041 -91.6482 0.0025 
386 1 0.0389132 -0.0166042 0.00313351 0 0 0 0.218712 0.0487695 -0.350836 0.168354 -0.0148834 -0.0802577 -44.9964 -57.6338 15.613 0.0025 
74 1 -0.0405893 -0.0124816 0.00237466 0 0 0 0.218957 0.0275302 -0.00261128 -0.013887 -0.00474539 0.291904 6.55947 37.5512 -30.0433 0.0025 
449 1 -0.0350351 -0.0130243 0.00299265 0 0 0 0.18832 -0.101037 0.255311 0 0 -0.00160516 21.0896 -4.92751 -11.1841 0.0025 
36 1 -0.0306132 -0.00945612 0.00246796 0 0 0 -0.00981791 0.367223 0.0472487 -0.000355687 -0.00182372 0.0355564 59.7596 -44.4417 21.1528 0.0025 
331 1 -0.0224573 -0.0123927 0.00272088 0 0 0 -0.304433 0.0317336 -0.260251 0.0571543 0.0121556 -0.00784392 12.2649 -13.2807 -3.89488 0.0025 
158 1 -0.0104035 -0.0134642 0.00277575 0 0 0 0.453931 0.0493191 0.0495137 0.122958 -0.0103029 -0.00220231 -65.6844 70.9183 -16.2371 0.0025 
226 1 -0.00561132 -0.0114511 0.00245506 0 0 0 0.152736 -0.222093 0.260165 -0.00161167 0.00243695 0.0568284 24.512 18.5758 2.31316 0.0025 
22 1 -0.000441008 -0.0116391 0.00283491 0 0 0 0.309263 -0.211063 0.220272 -0.0924369 -0.00103327 -0.0411229 2.92107 10.0196 -8.76413 0.0025 
7 1 0.00886841 -0.0139031 0.00252096 0 0 0 -0.221024 0.376235 -0.0151537 0 0 -0.00160516 -14.0336 17.5485 6.71007 0.0025 
338 1 0.0231494 -0.0106593 0.00264187 0 0 0 0.0836815 0.42782 -0.15761 0.00738742 -0.0164653 -0.00937203 -20.1439 96.9612 48.8372 0.0025 
337 1 0.0291555 -0.0104207 0.00284801 0 0 0 -0.192027 0.106451 0.376705 -0.0088622 0.00925252 -0.0245769 -65.6277 20.7004 77.9183 0.0025 
313 1 0.0342062 -0.0118622 0.00244751 0 0 0 -0.0509179 0.0455222 -0.0191226 0.00394634 0.00060967 0.0782579 -21.8444 1.74264 -18.2767 0.0025 
426 1 0.0419373 -0.0108625 0.00244398 0 0 0 0.100362 0.225279 -0.0894734 0.00494594 -0.262189 -0.108469 -31.6365 14.0196 -6.87043 0.0025 
196 1 -0.0460069 -0.0102566 0.00246774 0 0 0 -0.346059 -0.320966 0.138208 0.00144405 0.00108165 0.0344794 66.8962 -56.1122 16.7342 0.0025 
238 1 -0.0409249 -0.00746063 0.00292166 0 0 0 0.165919 -0.0567574 0.136952 0.0130688 0.0272085 -0.0383644 20.8673 -83.5615 -30.3612 0.0025 
49 1 -0.0239573 -0.00767597 0.00249746 0 0 0 -0.127952 0.274121 -0.0300798 0.00210163 0.106177 -0.0563151 31.9589 8.34218 -12.9118 0.0025 
252 1 -0.0190675 -0.00851484 0.00239078 0 0 0 -0.0627858 0.182937 0.221213 -0.0590937 -0.13783 0.140168 -34.5049 -9.63529 -28.6143 0.0025 
117 1 -0.0140345 -0.0101627 0.00313364 0 0 0 -0.0758506 -0.132481 0.139804 -0.0714229 0.0716341 0.00471329 13.0062 -29.026 59.0895 0.0025 
240 1 0.00439117 -0.0106571 0.00244801 0 0 0 0.0861428 -0.129903 0.41856 0.057878 0.0129339 0.0622809 8.47126 2.97027 -21.5413 0.0025 
24 1 0.0096018 -0.00894813 0.00243017 0 0 0 0.30646 0.0333302 0.297489 -0.00533751 -0.00136127 0.114599 1.83049 25.9323 5.23976 0.0025 
233 1 0.0167538 -0.0102447 0.00273679 0 0 0 -0.0536133 -0.20308 0.0983915 -0.00255105 -0.0346115 -0.000933656 17.6438 46.7415 -20.5405 0.0025 
237 1 0.0378118 -0.00809162 0.00256333 0 0 0 0.267572 0.036516 -0.183752 0.0446779 0.0512288 -0.122788 12.6399 14.3351 35.7305 0.0025 
362 1 0.0465885 -0.00915988 0.0024005 0 0 0 0.257268 0.380577 0.199086 0.0482585 -0.00294479 0.193977 -41.5011 -4.7746 -19.8602 0.0025 
292 1 -0.0472668 -0.00490065 0.00245892 0 0 0 0.0443292 0.045872 0.223941 0.013728 -0.057349 0.0475623 -5.55473 9.98224 -4.92194 0.0025 
949 1 -0.0360844 -0.00487322 0.00263753 0 0 0 0.0130182 -0.413853 0.164 -0.0190609 0.0268943 -0.0543416 -56.3786 4.50061 -72.7641 0.0025 
367 1 -0.0310469 -0.00445032 0.00245295 0 0 0 0.160469 -0.183566 0.107759 0.0125993 -0.0329693 0.0621682 28.0224 -10.3658 -13.3981 0.0025 
1337 1 -0.0204149 -0.00360759 0.0026678 0 0 0 -0.217528 0.108399 -0.0687854 0 0 -0.00160516 5.75608 32.4769 -37.0271 0.0025 
278 1 -0.0119452 -0.00556955 0.00253317 0 0 0 0.16064 0.0273383 -0.335817 0 0 -0.00160516 -27.7297 -9.90106 -18.4353 0.0025 
61 1 -0.0064389 -0.00646077 0.00254889 0 0 0 0.198351 0.110938 -0.301095 0.0642096 0.0548922 -0.0595344 38.9572 18.1722 5.18705 0.0025 
347 1 -0.00074232 -0.00652279 0.00273491 0 0 0 0.366915 0.177345 -0.460622 -0.0123834 0.00242367 -0.0125465 44.8386 16.1263 -11.3816 0.0025 
202 1 0.0061435 -0.00533907 0.00247505 0 0 0 0.204459 -0.195007 0.297608 0.015691 -0.0136701 0.0134496 -13.5918 19.6621 -35.8655 0.0025 
80 1 0.0170212 -0.00530328 0.00241296 0 0 0 -0.166885 0.158715 -0.268361 0.00978973 0.0296649 0.173071 -13.2918 3.50834 9.6721 0.0025 
1046 1 0.0254478 -0.00572711 0.00241435 0 0 0 0.0700903 -0.0877469 0.163945 0.215472 0.0420386 0.0171782 16.6274 -9.59743 30.858 0.0025 
92 1 0.0327434 -0.00667751 0.00245294 0 0 0 0.395349 -0.0857222 -0.33298 -0.00359043 -0.00075733 0.0717835 68.8987 -3.01136 10.7405 0.0025 
945 1 -0.0428453 -0.00271311 0.00330948 0 0 0 0.0530234 0.0631291 0.00497777 0 0 -0.00160516 -38.4039 -8.79994 -30.8736 0.0025 
1341 1 -0.0384409 -0.000460956 0.00247534 0 0 0 -0.062947 0.119295 0.0130108 0.000446838 -0.00301531 0.0222829 -14.8648 1.32518 -16.9178 0.0025 
342 1 -0.0266536 -0.00200363 0.00241489 0 0 0 -0.296707 -0.227555 -0.186561 -0.0153516 0.0553335 -0.0780236 -6.56378 -7.08907 30.4032 0.0025 
1127 1 -0.0151136 -0.00118297 0.00270853 0 0 0 -0.109941 0.0877707 0.415609 0.0307883 0.0915015 -0.0555584 70.0589 -91.7967 -22.8217 0.0025 
251 1 -0.00956424 -0.000958426 0.002599 0 0 0 -0.213496 -0.202382 0.0698411 0 0 -0.00160516 20.5881 -20.3599 -40.1504 0.0025 
21 1 0.00233522 -0.00216503 0.00278533 0 0 0 -0.0329467 0.0875923 0.185715 -0.0187287 0.015229 0.00108495 -3.40025 45.7051 36.1251 0.0025 
147 1 0.0076705 -0.000109334 0.00250743 0 0 0 0.0711126 -0.110176 0.0648122 -0.0207214 0.00182307 -0.142751 32.4272 8.1678 -37.007 0.0025 
154 1 0.011099 -0.00395179 0.0027923 0 0 0 0.389517 -0.119014 -0.0401968 0.0488387 0.0298876 -0.0744399 -1.19748 23.8862 -25.9806 0.0025 
408 1 0.027697 -0.00130627 0.0026159 0 0 0 0.131234 -0.0677242 0.0795604 0.0140959 0.0277417 0.0012208 24.9401 -28.2765 -55.0755 0.0025 
368 1 0.0325935 -0.00177766 0.00399514 0 0 0 -0.295652 -0.0958858 0.0511708 -0.0141505 0.0136438 -0.0140988 -15.2285 -12.979 -27.0278 0.0025 
425 1 0.038743 -0.00274607 0.00262396 0 0 0 -0.0514971 0.194282 0.0557977 0.0495425 -0.0899088 0.00824208 -1.84309 -17.5426 15.6646 0.0025 
376 1 0.0452397 -0.000522662 0.0121894 0 0 0 0.0519514 -0.458909 -0.667415 0 0 -0.00160516 17.9733 -24.7003 32.5749 0.0025 
305 1 0.0473506 -0.00265086 0.00266657 0 0 0 0.0637395 -0.291216 0.110215 0 0 -0.00160516 -39.508 21.5282 -17.7523 0.0025 
255 1 -0.00498397 -0.0471377 0.00416418 0 0 0 -0.163046 -0.423751 -0.0805912 -0.000420108 -0.00268343 -0.00336019 -45.3532 14.1455 -77.3099 0.0025 
257 1 0.00585223 -0.0448132 0.00651855 0 0 0 0.10228 -0.337796 0.0640018 0 0 -0.00160516 -34.0824 32.4919 17.7567 0.0025 
82 1 -0.0224653 -0.0404582 0.00717448 0 0 0 0.0619374 0.0728294 0.100824 0 0 -0.00160516 1.75224 -2.15978 -94.4974 0.0025 
354 1 -0.0041123 -0.0429716 0.00676482 0 0 0 0.505571 -0.00690212 -0.213899 0.000420108 0.00268343 0.000149874 -24.8826 -9.10672 -21.1928 0.0025 
377 1 0.00183193 -0.0418388 0.00703756 0 0 0 -0.0364529 -0.0579585 -0.103959 0.0716275 0.078104 -0.174832 -2.10201 -48.9158 -14.9916 0.0025 
16 1 -0.0187181 -0.0362527 0.00647379 0 0 0 0.22916 -0.26916 -0.0249436 0 0 -0.00160516 23.118 28.6972 14.684 0.0025 
167 1 -0.00845618 -0.0367167 0.00475068 0 0 0 0.212888 -0.354085 -0.192192 -0.0262034 0.00172249 -0.035128 28.516 -3.55211 5.13025 0.0025 
373 1 0.00650472 -0.0389608 0.00696855 0 0 0 -0.100304 -0.169652 0.132736 0.042177 0.0992371 0.18297 -6.53186 -7.24251 8.78817 0.0025 
332 1 0.0213186 -0.0383444 0.00579117 0 0 0 0.121318 -0.295232 0.145174 -0.0943216 0.100066 0.100933 -74.2438 -28.8761 -58.837 0.0025 
378 1 -0.0125954 -0.0321131 0.00514868 0 0 0 0.104572 0.154362 0.43445 0 0 -0.00160516 -15.1666 -85.4196 15.6956 0.0025 
70 1 0.00162882 -0.0358399 0.00654005 0 0 0 0.151823 0.0765211 0.421935 -0.0334515 -0.0181133 -0.0764128 -26.2563 8.23989 10.9673 0.0025 
234 1 0.0147563 -0.0351988 0.0029202 0 0 0 -0.0282923 -0.0288358 -0.24933 0.0307613 -0.130501 0.0275567 -12.253 14.8379 -36.7519 0.0025 
182 1 -0.0207615 -0.0316839 0.00529293 0 0 0 0.327091 -0.619751 0.128896 0.0369707 0.0606388 0.0435365 -7.03694 -35.4543 -63.4458 0.0025 
291 1 -0.00798715 -0.0308219 0.00258222 0 0 0 -0.189167 -0.205167 -0.672026 0 0 -0.00160516 67.8728 8.74813 9.29524 0.0025 
115 1 -0.00253674 -0.0292521 0.00472927 0 0 0 -0.383592 -0.00763431 0.00869138 0 0 -0.00160516 -2.34678 -40.9864 26.9079 0.0025 
160 1 0.00289526 -0.0308303 0.00702775 0 0 0 -0.296366 -0.449193 -0.0194166 0 0 -0.00160516 38.8011 97.8409 11.2714 0.0025 
320 1 0.0144552 -0.0313392 0.00641162 0 0 0 -0.171252 -0.184551 0.00754308 -0.110638 0.0193554 -0.0113148 -19.6041 50.2036 -13.4967 0.0025 
13 1 0.0237367 -0.0303996 0.00419539 0 0 0 0.0656483 -0.175769 -0.343805 0 0 -0.00160516 -32.4719 -31.3582 -29.7274 0.0025 
306 1 -0.0357123 -0.0271828 0.00287555 0 0 0 0.0705045 -0.000408181 -0.313372 -0.017855 0.111125 0.00851292 79.9118 24.8392 -34.9953 0.0025 
294 1 -0.0297413 -0.0257244 0.00714084 0 0 0 0.132624 -0.106559 -0.238756 -0.0270767 0.00529833 -0.00891178 -39.4597 33.1449 2.21086 0.0025 
394 1 -0.0218736 -0.0264349 0.00469232 0 0 0 -0.152339 -0.278251 -0.159437 -0.00484969 0.00152743 0.00107392 57.0627 -38.7112 18.6766 0.0025 
76 1 0.00398812 -0.0254487 0.00671696 0 0 0 -0.30337 0.236298 -0.11194 4.27103e-05 -0.0518613 0.0136237 31.7223 -3.64791 16.4767 0.0025 
307 1 0.0199995 -0.0252239 0.00307296 0 0 0 0.0345342 0.251156 -0.173885 0.0595936 -0.00452518 0.00478271 -3.94699 73.6887 11.1895 0.0025 
304 1 0.0257773 -0.0250878 0.00330493 0 0 0 0.0527468 -0.126633 -0.257713 -0.0410751 -0.0862864 0.0192409 -59.3985 -28.0818 -14.6684 0.0025 
165 1 -0.00769639 -0.0224365 0.00666172 0 0 0 0.070371 0.34684 -0.195001 0.00263073 0.17949 -0.0401764 -11.0156 -29.561 25.1497 0.0025 
164 1 -0.00137296 -0.0236949 0.00657409 0 0 0 0.49212 0.170823 0.336056 -0.065924 -0.0217203 -0.0779423 30.5107 -11.8187 -41.8293 0.0025 
219 1 0.00893306 -0.023201 0.00639888 0 0 0 -0.0597207 -0.539081 -0.232644 0.511202 -0.196522 0.243234 39.9043 48.4259 -0.766741 0.0025 
269 1 0.0171664 -0.0222648 0.00708593 0 0 0 0.329719 0.00120613 0.0676461 0.0769301 -0.144549 0.00987154 -91.8363 56.1465 -49.4894 0.0025 
132 1 0.0350658 -0.0253443 0.00540529 0 0 0 0.322579 -0.00829131 0.092097 -0.012016 -0.0272082 0.0517979 10.4606 -7.93484 8.32224 0.0025 
372 1 -0.0397245 -0.0220852 0.00674776 0 0 0 -0.333256 -0.159207 -0.171169 -0.199235 0.0762771 -0.0282507 -47.0447 -6.86403 -13.257 0.0025 
382 1 -0.0308691 -0.0206593 0.0066526 0 0 0 -0.419739 -0.353544 0.0339145 0.0226181 -0.0276124 0.0568148 -74.4194 -46.2627 -41.3384 0.0025 
163 1 -0.0197412 -0.0216029 0.0061852 0 0 0 -0.309716 -0.296837 0.0463747 0.0124411 0.00257256 0.0121642 -69.9223 27.0265 30.2338 0.0025 
293 1 -0.0136708 -0.0171533 0.0026346 0 0 0 -0.168261 -0.156409 0.490041 -0.0204591 -0.0573516 -0.00835603 -6.7548 -45.7953 -45.0919 0.0025 
41 1 -0.0040817 -0.0187734 0.00645333 0 0 0 0.515219 0.159345 0.0154154 0.017433 -0.115361 0.0891595 -51.3464 -80.1537 17.8895 0.0025 
383 1 0.0050445 -0.0204098 0.00631805 0 0 0 -0.27548 -0.360226 0.217077 -0.311105 0.267284 -0.000856636 9.89365 41.4627 -34.2763 0.0025 
183 1 0.0316187 -0.021198 0.00573526 0 0 0 0.499303 -0.229032 -0.0671767 -0.0757482 0.0596065 -0.0488905 -46.0044 32.7521 -4.02923 0.0025 
121 1 -0.0392355 -0.0170096 0.00432969 0 0 0 0.0660956 -0.117548 0.205132 0 0 -0.00160516 36.4016 -49.8099 -0.346687 0.0025 
6 1 -0.0236737 -0.0171832 0.00261664 0 0 0 -0.0726541 0.135967 -0.187048 -0.0250888 -0.00790391 -0.000261715 8.70415 14.487 25.7471 0.0025 
23 1 -0.00900017 -0.0169532 0.00635208 0 0 0 -0.0402673 -0.137014 -0.00978591 -0.0306112 -0.00122246 0.0384649 8.36423 -60.956 -8.22608 0.0025 
340 1 0.00980921 -0.0163475 0.00702518 0 0 0 -0.0012711 0.0363544 0.121557 0 0 -0.00160516 -27.9109 14.4906 29.1185 0.0025 
54 1 0.0150486 -0.0178826 0.00659031 0 0 0 0.571717 0.196131 -0.185742 -0.0555379 0.110103 0.0579441 -11.5932 43.6928 -18.3082 0.0025 
140 1 0.0202309 -0.0178108 0.00638661 0 0 0 0.0035377 -0.348599 0.00150456 0 0 -0.00160516 -53.329 36.0431 53.6699 0.0025 
1 1 0.034616 -0.0161844 0.0054079 0 0 0 -0.273936 0.0626161 0.0269951 -0.143972 0.0111587 0.0857038 44.4418 32.0909 12.308 0.0025 
104 1 0.0453134 -0.0145657 0.0036227 0 0 0 -0.0320274 0.128246 0.0255817 -0.190296 0.0546828 -0.00933655 -4.58255 -0.919564 -35.3379 0.0025 
436 1 -0.0265235 -0.0109232 0.00516685 0 0 0 -0.134741 -0.0144439 -0.18546 -0.0737972 -0.0508485 0.0661144 -5.65886 28.6858 -2.77813 0.0025 
326 1 -0.0180945 -0.0130581 0.00535949 0 0 0 -0.277466 0.197506 -0.0376841 -0.00673195 -0.0277223 -0.0255781 10.2017 5.61175 -8.69537 0.0025 
321 1 -0.00290366 -0.0139738 0.00657258 0 0 0 0.157931 -0.279536 -0.00806049 0.0195903 0.0657266 -0.000626718 20.636 24.8775 -2.73633 0.0025 
442 1 0.00230474 -0.0121831 0.00691482 0 0 0 0.0653902 0.0668915 0.239819 0.0326624 -0.00891185 0.0448208 34.7637 -61.6653 75.0126 0.0025 
401 1 0.00728001 -0.0108077 0.00660141 0 0 0 0.0489578 -0.0440368 -0.211428 0 0 -0.00160516 12.985 12.2058 -101.106 0.0025 
384 1 0.0126741 -0.0121565 0.00557523 0 0 0 -0.216937 -0.00598137 -0.597849 -0.0054823 -0.000800076 -0.01683 -66.9601 -38.4396 -62.5532 0.0025 
166 1 0.0187016 -0.0120255 0.0073135 0 0 0 0.0698945 -0.164798 -0.0369831 0.0235853 -0.115178 -0.0509623 -13.8384 -78.6893 -8.59209 0.0025 
59 1 0.0391095 -0.0125541 0.00608063 0 0 0 0.0135616 -0.00581016 -0.486862 -0.0678448 -0.0475805 0.100953 -28.067 -5.20552 24.6005 0.0025 
136 1 -0.0468397 -0.00790796 0.0075558 0 0 0 0.136972 -0.171302 -0.258936 -6.02544e-05 -9.32364e-06 -0.00160223 97.7929 -15.0354 -38.2429 0.0025 
336 1 -0.0420707 -0.0102413 0.00686012 0 0 0 0.0517969 0.105138 -0.216383 -0.00664182 0.0164724 -0.204993 12.3303 2.15027 -27.907 0.0025 
190 1 -0.00947399 -0.00894537 0.00551815 0 0 0 0.0518032 -0.0122684 0.0657342 -0.0642096 -0.0548922 0.056324 28.5235 -19.7165 12.0842 0.0025 
65 1 -0.00429442 -0.00880918 0.00651608 0 0 0 0.110488 0.00746426 -0.217231 0.00380505 -0.00437949 -0.0080033 11.6661 -38.2367 42.1888 0.0025 
38 1 0.00281126 -0.00712837 0.00616726 0 0 0 -0.0613403 0.394799 -0.133305 -0.0190071 -0.0258722 -0.0434305 -7.01273 21.8821 -26.4389 0.0025 
971 1 0.0213331 -0.00657915 0.00483412 0 0 0 0.197683 0.243439 -0.0595782 -0.239838 -0.0457285 0.146864 -41.4834 -8.78658 -11.8865 0.0025 
27 1 -0.0344235 -0.00681582 0.00687002 0 0 0 0.175275 0.102183 0.265694 0.0597035 -0.0211575 0.0227346 -25.1575 -17.0719 5.88664 0.0025 
419 1 -0.0272769 -0.0054685 0.00572184 0 0 0 -0.186701 -0.174923 -0.202898 -0.0618225 -0.23136 0.207488 17.7966 7.92834 22.6832 0.0025 
157 1 -0.0216913 -0.00646355 0.00740652 0 0 0 0.154179 -8.94164e-06 -0.0892913 -0.00101004 -0.000326424 -0.000915441 -29.4139 30.8698 -39.6342 0.0025 
328 1 -0.0163336 -0.00537981 0.00496031 0 0 0 0.00462413 -0.362553 0.0473852 0.0645556 0.02772 0.141283 -18.2438 25.7845 -18.9737 0.0025 
287 1 0.00862523 -0.00538059 0.00680535 0 0 0 0.314586 0.111318 0.158646 -0.0249695 -0.0295241 0.0516226 -41.7643 -46.1706 -39.35 0.0025 
191 1 0.0134836 -0.00682187 0.00673598 0 0 0 0.112061 -0.36027 0.444385 0 0 -0.00160516 -27.5837 7.42361 20.325 0.0025 
290 1 0.0357325 -0.00448355 0.00673263 0 0 0 0.137474 -0.168164 0.430365 0.0466055 0.2853 -0.0594342 13.9687 4.55161 13.116 0.0025 
122 1 0.0427699 -0.00628076 0.00378084 0 0 0 -0.0136548 0.0605421 -0.390924 0.0336921 0.280738 0.0971394 -14.5113 -80.6495 32.2408 0.0025 
1100 1 0.0469163 -0.00615727 0.00681512 0 0 0 0.245745 0.0414655 -0.00852875 0.173071 0.158202 -0.0433008 0.515584 -13.8273 -92.7947 0.0025 
381 1 -0.046761 -0.00246438 0.00688619 0 0 0 0.566901 -0.0961461 0.147838 0 0 -0.00160516 7.26236 22.8815 -86.7299 0.0025 
42 1 -0.0378154 -0.00256844 0.00723638 0 0 0 -0.247305 -0.362988 0.20348 0 0 -0.00160516 21.2535 -14.0496 -30.1372 0.0025 
94 1 -0.028131 -0.000382015 0.00713979 0 0 0 0.0309412 0.225091 0.136736 0.0753447 -0.0339888 -0.013064 3.83237 21.6984 -3.38688 0.0025 
1116 1 -0.0233009 -0.00123819 0.00618686 0 0 0 0.209909 0.100926 -0.0852207 0.0100435 -0.0489931 -0.0279857 -49.0393 -13.9143 -31.8288 0.0025 
901 1 -0.0181835 -0.00123962 0.00704471 0 0 0 0.0400437 0.262191 -0.330598 0.0637535 -0.0947769 -0.131986 65.9319 -58.4038 -40.7976 0.0025 
1021 1 -0.0035508 -0.00387095 0.00669899 0 0 0 0.0476776 -0.105528 -0.00645752 -0.0708603 -0.0745414 0.00050335 -8.54328 -1.18394 30.7015 0.0025 
534 1 0.0311171 -0.00767171 0.0414661 0 0 0 0.362555 -0.239918 -0.934346 0 0 -0.00160516 28.9816 17.3117 -10.8457 0.0025 
1080 1 0.0143076 -0.00189052 0.00681266 0 0 0 0.0717799 -0.523648 0.0663381 0 0 -0.00160516 -9.14879 -21.8035 -1.79526 0.0025 
1179 1 0.0194164 -0.00154665 0.00714155 0 0 0 -0.0500248 -0.197862 -0.206522 0 0 -0.00160516 21.6941 -27.802 13.9353 0.0025 
1150 1 0.024812 -0.0030703 0.00664876 0 0 0 0.00533209 -0.0741483 -0.304132 0 0 -0.00160516 34.7254 28.6331 -1.24133 0.0025 
416 1 -0.00324178 -0.0470302 0.0105698 0 0 0 -0.428882 -0.413013 0.254525 -0.148076 -0.158565 -0.041609 -43.6828 17.8538 31.9475 0.0025 
352 1 -0.0136026 -0.0455675 0.00965545 0 0 0 0.362133 -0.130625 -0.00702651 0.027492 0.0795706 -0.0115463 -27.3801 -13.3344 -36.4733 0.0025 
73 1 -0.0090773 -0.0461869 0.0073841 0 0 0 0.0525559 -0.21259 0.157155 0.0057401 -0.0144148 -0.00446658 84.4326 -15.9555 -22.1016 0.0025 
189 1 0.000838425 -0.0470419 0.00770372 0 0 0 0.10163 -0.176104 0.0159561 0.00256092 -0.000158626 -0.0034603 -43.6917 -12.3333 -46.3226 0.0025 
29 1 0.0105873 -0.0459767 0.00877054 0 0 0 0.127311 0.332889 -0.338657 -0.0237439 -0.0116157 -0.0100353 -25.5896 -27.729 62.6416 0.0025 
243 1 0.0148341 -0.0440417 0.0104816 0 0 0 -0.368676 -0.111544 0.0755069 0.118036 -0.0765157 -0.116259 31.2679 37.7204 22.9036 0.0025 
411 1 -0.0175695 -0.0416424 0.0074889 0 0 0 0.0163371 0.131418 0.0442572 0 0 -0.00160516 -45.7079 5.55077 35.3319 0.0025 
444 1 -0.0107028 -0.041545 0.00815065 0 0 0 0.158981 -0.174189 0.0404299 -0.0057401 0.0144148 0.00125626 -43.0811 -70.4881 46.7133 0.0025 
60 1 0.0113057 -0.0408653 0.00736696 0 0 0 0.0229794 0.126029 0.173195 0.00417209 0.00652296 -0.0464471 -23.0596 -23.4213 27.9879 0.0025 
302 1 0.0209325 -0.0424737 0.00931133 0 0 0 -0.284404 -0.228522 -0.158109 -0.0989825 -0.0471444 -0.140141 -21.9907 -18.2443 44.836 0.0025 
102 1 -0.0280907 -0.0383902 0.00716066 0 0 0 -0.197802 -0.0197481 0.13038 0.0581858 0.096722 -0.0236268 20.7354 -83.3056 57.9925 0.0025 
197 1 -0.00546775 -0.036683 0.00870406 0 0 0 0.204742 -0.121088 -0.0946252 0.123106 -0.0749181 0.0221397 35.8683 27.569 -14.812 0.0025 
274 1 -0.00118951 -0.0389756 0.0101043 0 0 0 -0.199235 0.0722613 0.0583288 -0.0789979 0.337635 -0.101373 17.1566 -27.9717 31.5743 0.0025 
357 1 0.0121438 -0.0357626 0.00762174 0 0 0 0.0617665 -0.0960532 0.0538021 -0.0131026 -0.0308064 -0.0837751 1.44259 41.3407 -30.8358 0.0025 
388 1 0.0165367 -0.0401702 0.00780176 0 0 0 0.18197 0.0183901 -0.0855521 0 0 -0.00160516 -86.7367 40.8504 -69.4573 0.0025 
186 1 0.0266458 -0.03706 0.00820517 0 0 0 -0.0654049 0.193701 -0.0375147 0.00460335 -0.00198932 -0.00775806 14.758 7.23032 -42.4069 0.0025 
78 1 -0.0317928 -0.0344772 0.00648946 0 0 0 0.00589817 0.0424687 -0.0128774 -0.00256169 0.00395337 -0.0124334 11.0675 44.7607 42.8199 0.0025 
348 1 -0.0240562 -0.0346003 0.00772174 0 0 0 -0.0428361 -0.0127542 0.141485 0 0 -0.00160516 -88.3212 -102.301 11.898 0.0025 
395 1 -0.0196241 -0.0329259 0.0103017 0 0 0 -0.288953 -0.313173 0.145247 0.00521306 -0.0159262 -0.00677105 -2.76537 -45.6142 -4.6407 0.0025 
8 1 -0.0132327 -0.0368679 0.00747429 0 0 0 0.0613057 -0.576153 0.396681 -0.00306675 -0.00228654 0.00118557 -21.6988 23.768 -30.9804 0.0025 