ITEM: TIMESTEP
17600
ITEM: NUMBER OF ATOMS
1800
ITEM: BOX BOUNDS mm mm mm
-0.05 0.05
-0.05 0.05
0 0.15
ITEM: ATOMS id type x y z ix iy iz vx vy vz fx fy fz omegax omegay omegaz radius 
410 1 -0.00794663 -0.0462017 0.00249157 0 0 0 0.0412266 0.0141317 -0.0213638 -0.00184574 -0.00511895 -0.000862843 -31.5311 11.6631 -13.1198 0.0025 
255 1 -0.00119915 -0.047405 0.00247256 0 0 0 -0.0772427 -0.0149642 -0.0586492 -0.00269224 -0.00075723 0.00898689 -7.52388 -2.99453 -6.90837 0.0025 
217 1 -0.0153256 -0.0448868 0.00256892 0 0 0 0.0141538 0.0759188 0.046379 -0.00134748 -0.000335599 -0.00216322 13.346 0.155158 -5.50453 0.0025 
218 1 -0.00394196 -0.0432329 0.00259589 0 0 0 -0.0600654 -0.0341966 0.0206897 -0.00957496 -0.012539 -0.0024296 -8.69333 -16.0873 8.68898 0.0025 
28 1 0.00178743 -0.0433483 0.00248329 0 0 0 0.0379354 0.00339713 0.0391454 -0.00796537 0.0106224 0.00977268 -0.985493 16.1049 4.68483 0.0025 
241 1 0.0103016 -0.0463002 0.00268617 0 0 0 0.0716431 -0.00395057 -0.0878945 0.00239714 0.00114669 -0.0731685 10.3682 20.0285 -13.1186 0.0025 
279 1 0.0163155 -0.0443738 0.00248155 0 0 0 -0.0351258 -0.0265401 -0.0124175 0.000794717 0.00026348 0.01514 4.193 5.3888 -0.572468 0.0025 
413 1 -0.0263019 -0.039567 0.00252073 0 0 0 -0.0547048 0.0585975 -0.000954819 -0.0245141 0.0133665 -0.0466527 12.6983 9.72739 7.71943 0.0025 
37 1 -0.0217549 -0.0422432 0.00254581 0 0 0 -0.133411 0.0326249 -0.047563 0.0092907 -0.0223051 -0.00163607 -4.47109 -9.17248 9.26023 0.0025 
103 1 -0.0172627 -0.0394907 0.00248383 0 0 0 0.0828105 0.00901591 -0.0286218 0.00305223 -0.0203862 -0.00720255 1.09618 1.36801 -4.6265 0.0025 
18 1 -0.0110697 -0.0422708 0.00250698 0 0 0 0.0295835 0.133559 -0.0233591 0.00546744 -0.00135742 -0.00722981 -6.06723 6.68515 18.8978 0.0025 
141 1 0.00672575 -0.0423091 0.00246402 0 0 0 0.02316 -0.0397481 -0.0221124 -0.0054275 -0.000568908 0.0343217 -14.4462 4.90197 2.73827 0.0025 
230 1 0.0120195 -0.0415931 0.00257219 0 0 0 -0.00817044 -0.0646995 -0.000845219 0 0 -0.00160516 -14.8541 15.3757 2.87018 0.0025 
409 1 0.0210091 -0.0425757 0.0024812 0 0 0 0.0498321 -0.0473971 -0.00806052 -0.000642993 0.000568185 0.0155561 -6.69682 -9.10639 1.80516 0.0025 
389 1 0.0254494 -0.0400401 0.00252327 0 0 0 0.0831736 -0.0230496 0.0203864 0.00054434 -0.0128491 -0.00203314 -7.53354 -6.07632 -12.6153 0.0025 
95 1 -0.0218724 -0.0372821 0.00252604 0 0 0 0.0064102 0.00899079 -0.0706667 0.0049808 0.0363289 -0.000907013 10.7428 3.92673 -6.66076 0.0025 
438 1 -0.0126497 -0.0374634 0.00247967 0 0 0 0.0221978 0.05326 -0.0176373 -0.000511714 -0.000825165 0.0178139 5.22175 -7.58793 5.09549 0.0025 
167 1 -0.00708273 -0.0388275 0.00248813 0 0 0 0.0573927 -0.0742748 0.0467202 -0.000202269 0.0002348 0.0061714 13.1059 2.60094 -4.15926 0.0025 
85 1 -0.00103186 -0.0392042 0.00262693 0 0 0 -0.10428 -0.00473579 0.0427335 0.0163519 0.0176178 -0.00108295 15.8911 7.47194 7.11534 0.0025 
268 1 0.00559925 -0.0374432 0.00257251 0 0 0 0.0752457 0.00174259 -0.0100371 -0.00282327 -0.00333981 -0.00497201 -8.02491 0.882988 15.3344 0.0025 
126 1 0.0107946 -0.0365648 0.00246548 0 0 0 -0.0028403 -0.0294442 0.0555153 -0.000583914 0.00199074 0.039887 8.32078 -1.43173 3.86151 0.0025 
101 1 0.0169677 -0.0393443 0.0026279 0 0 0 0.174924 -0.00428825 0.0179245 0 0 -0.00160516 -2.06843 34.2468 6.49434 0.0025 
309 1 0.030151 -0.0367427 0.00261192 0 0 0 -0.0538915 -0.0504113 0.034124 -0.0212423 0.0272702 -0.00309336 4.81553 -4.70634 21.8732 0.0025 
10 1 -0.033441 -0.0337667 0.00281418 0 0 0 -0.028223 0.0761441 -0.0185112 0.00559091 0.0183242 -0.000677303 -4.65499 3.94198 7.04477 0.0025 
244 1 -0.0286323 -0.0350282 0.00251039 0 0 0 0.0073192 -0.018819 -0.0285596 0.0134733 -0.0204824 -0.0198599 3.32837 4.7982 -8.1341 0.0025 
182 1 -0.0206642 -0.0324364 0.00256867 0 0 0 0.0637285 -0.0605716 0.0661698 -0.0100434 -0.0108237 -0.00194316 2.27943 0.657879 9.58588 0.0025 
81 1 -0.0156464 -0.0333914 0.00248165 0 0 0 -0.0621071 0.0285691 -0.0441673 -0.0183814 -0.00140271 -0.00360387 -4.72298 5.15345 1.92691 0.0025 
291 1 -0.00885481 -0.0341166 0.00262204 0 0 0 0.046054 -0.00626519 0.0937716 -0.00180629 -0.00239342 -0.0107361 18.6734 10.4369 -10.6275 0.0025 
295 1 -0.00373723 -0.0350075 0.00248978 0 0 0 0.0332899 0.0307297 -0.0332687 -0.00134815 0.00130578 0.00563557 -1.57229 1.39036 -10.4965 0.0025 
68 1 0.00129101 -0.0347527 0.00250273 0 0 0 -0.0348459 0.0102644 0.0252511 -0.00477544 -0.00901519 -0.0223302 -19.2618 1.67414 11.7447 0.0025 
234 1 0.0150891 -0.0340201 0.00275976 0 0 0 0.0444724 0.00974748 -0.0564957 0 0 -0.00160516 -22.675 -5.30244 1.98824 0.0025 
213 1 0.0201238 -0.034335 0.00250009 0 0 0 0.100877 0.0135205 -0.0120282 -0.0169244 -0.0204899 -0.0333203 -13.8183 3.90656 -16.6501 0.0025 
134 1 0.0250608 -0.0350747 0.00251516 0 0 0 0.0349206 -0.0521515 -0.0425212 0.00307228 0.0124882 -0.00119705 9.70292 13.1289 4.26236 0.0025 
369 1 0.0339582 -0.0331207 0.00260305 0 0 0 -0.126811 0.0721292 0.0863007 0 0 -0.00160516 13.0685 26.3752 -2.91669 0.0025 
306 1 -0.0371657 -0.0296049 0.00247851 0 0 0 0.0418817 -0.022122 -0.0918087 0.0095071 0.00905488 0.0211826 -6.8785 10.197 -13.1817 0.0025 
266 1 -0.0319491 -0.0289727 0.00251937 0 0 0 0.0208698 0.0131011 -0.0148135 0.0262876 -0.00775066 -0.0233004 -2.04436 -7.73856 8.59849 0.0025 
113 1 -0.0256113 -0.031053 0.00250266 0 0 0 0.0371153 0.0136785 -0.0164598 -0.000955078 -0.00118442 -0.00191554 3.76281 8.91176 -5.64928 0.0025 
265 1 -0.0118681 -0.0301335 0.00246477 0 0 0 0.0234696 -0.006817 0.0417673 -0.00344335 -0.00806404 -0.00234512 1.0839 9.19601 6.32134 0.0025 
115 1 -0.00512172 -0.030133 0.00248736 0 0 0 -0.0838005 -0.023081 -0.00800219 -0.0129831 -0.000290354 0.0072346 -1.78772 21.2353 2.63397 0.0025 
225 1 -0.000146529 -0.0299481 0.00248532 0 0 0 0.0486126 0.0024388 -0.0761551 0.0128315 0.000547615 0.0118166 -6.85319 -3.36989 4.05894 0.0025 
30 1 0.00558631 -0.0297044 0.00256292 0 0 0 -0.0715831 -0.127589 -0.0168729 0 0 -0.00160516 -7.97013 17.179 0.182126 0.0025 
220 1 0.0108137 -0.0308101 0.00253449 0 0 0 0.0906155 0.0382577 -0.0480235 -0.00724842 -0.0190462 -0.0046452 4.59467 8.58416 1.45064 0.0025 
440 1 0.0184581 -0.0296269 0.00247264 0 0 0 0.0172271 -0.0791242 -0.0242531 0.0031718 0.00507352 0.0206878 18.2296 9.50473 -9.68832 0.0025 
13 1 0.0237851 -0.0300523 0.0025894 0 0 0 0.0470847 0.140445 -0.02045 0.000471352 0.000424615 -0.00253064 25.9477 9.28059 -13.5654 0.0025 
66 1 0.0287722 -0.0314138 0.00248768 0 0 0 0.00210516 0.0386041 0.00835463 0.000244176 -0.00141044 0.00727872 8.788 0.456889 14.8208 0.0025 
296 1 -0.0399441 -0.0253695 0.00247451 0 0 0 -0.0122864 -0.0300141 -0.00435934 0.000947836 -0.00250215 -0.00135873 7.35185 9.96645 -4.36388 0.0025 
195 1 -0.027534 -0.0262659 0.00258726 0 0 0 0.00335755 -0.0548021 0.0306527 0 0 -0.00160516 -4.09533 -2.19347 2.36163 0.0025 
394 1 -0.0225315 -0.0271262 0.00257547 0 0 0 0.00407943 0.019487 -0.0604228 -0.00176543 -0.0121484 -0.0139916 4.59615 1.76694 9.30147 0.0025 
434 1 -0.017711 -0.0284319 0.00249976 0 0 0 0.0568277 -0.0054829 0.033231 0.00797716 0.0171502 -0.00978268 -7.22415 -2.42499 -7.39857 0.0025 
286 1 -0.00772219 -0.0257569 0.00248181 0 0 0 -0.00992637 -0.0204206 0.0454388 -0.000544913 0.000556921 0.0139781 -3.42959 -15.3642 -3.99329 0.0025 
76 1 0.00244354 -0.0256505 0.00309188 0 0 0 -0.0284919 -0.02936 0.0107188 0.00181461 -0.0762494 0.00516061 -19.2175 -8.68201 -6.94061 0.0025 
346 1 0.0133264 -0.0265167 0.00254247 0 0 0 0.053765 -0.0273039 0.0709623 0.00267731 -0.0120212 -0.0027614 -1.42712 18.7929 12.4517 0.0025 
304 1 0.0275925 -0.0265571 0.00247935 0 0 0 0.0099867 -0.0805062 -0.0216145 -0.0587169 -0.0270856 -0.0441629 6.87072 -2.22736 1.56953 0.0025 
285 1 0.0328167 -0.0282275 0.0025918 0 0 0 0.00253612 -0.00950007 0.0851286 -0.0108542 -0.000412557 -0.00135073 -10.994 7.92635 -0.803524 0.0025 
205 1 0.0377746 -0.0287246 0.00250598 0 0 0 -0.0497675 -0.0570655 0.0772413 0.0103143 -0.000525447 -0.00188325 12.4967 -2.61664 -10.5688 0.0025 
365 1 -0.0348973 -0.024967 0.00263514 0 0 0 0.04101 0.00787912 0.0929 -0.0111992 0.014512 -0.00200867 -20.0209 4.99848 16.7208 0.0025 
187 1 -0.0285972 -0.0213441 0.0025002 0 0 0 0.031332 0.0448316 -0.0120011 0 0 -0.00160516 0.0993839 -5.47622 -0.35813 0.0025 
15 1 -0.0235802 -0.0222499 0.00251969 0 0 0 -0.0845105 -0.017695 -0.00227327 -0.00302437 -0.00795416 -0.0212942 2.90563 8.06033 6.63014 0.0025 
421 1 -0.0183266 -0.022774 0.00250792 0 0 0 0.0189437 0.0622591 0.0414855 0 0 -0.00160516 4.38719 11.4472 10.1425 0.0025 
374 1 -0.0137143 -0.0248985 0.00260259 0 0 0 0.0102518 -0.0248927 0.0187019 0 0 -0.00160516 10.3537 -5.85121 -9.37244 0.0025 
334 1 -0.00516466 -0.0212857 0.00248476 0 0 0 -0.0186455 -0.0668651 -0.00337776 0.00657654 -0.0379692 0.00944034 -3.71808 -6.06994 4.02571 0.0025 
32 1 0.0084156 -0.0255186 0.00256153 0 0 0 0.107139 -0.00413405 0.0470114 0 0 -0.00160516 15.7883 -4.67106 15.866 0.0025 
75 1 0.0139411 -0.0215883 0.00257266 0 0 0 -0.059938 -0.0374219 0.0330081 0.00496325 0.0282313 -0.00141171 -10.5258 5.29933 12.6456 0.0025 
424 1 0.0179295 -0.0246068 0.00285477 0 0 0 0.0897108 0.0287269 0.0719221 0.00204223 0.000786243 -0.00156186 -2.01375 8.89478 -12.6145 0.0025 
307 1 0.0229421 -0.024753 0.0026268 0 0 0 0.0610647 -0.0506903 0.044905 -0.00447705 0.00151197 -0.001574 24.5023 2.28953 8.22615 0.0025 
132 1 0.0352295 -0.0238537 0.00246849 0 0 0 -0.0638682 -0.021131 -0.0963941 -0.0152457 -0.0234502 0.0374181 11.5233 1.2132 -5.45181 0.0025 
44 1 0.0408075 -0.0243843 0.00247861 0 0 0 0.0712609 -0.083207 -0.0395033 -0.042803 0.0287133 0.0203819 -6.14601 -9.12242 -6.56631 0.0025 
58 1 -0.0427803 -0.0206289 0.00253729 0 0 0 0.0382494 0.00161831 0.0289572 0.000765268 -0.00221583 -0.00611427 2.0769 -8.4767 2.37501 0.0025 
404 1 -0.0377183 -0.0208453 0.00245793 0 0 0 0.021927 0.0451607 -0.0615586 -0.00205075 -0.00198403 0.0565067 -8.80722 0.933848 -10.709 0.0025 
293 1 -0.0146162 -0.0188838 0.00251699 0 0 0 0.01513 -0.0147412 -0.0613582 -3.06821e-07 8.21032e-07 -0.0016051 13.3832 -3.36634 -12.1771 0.0025 
433 1 -0.0101953 -0.0213458 0.00249074 0 0 0 -0.079848 0.0011019 0.00606102 0.000288022 -3.96691e-05 0.00420966 3.84488 -0.87635 10.2663 0.0025 
87 1 -8.54626e-05 -0.0214198 0.00258532 0 0 0 0.0510702 -0.137201 0.0234518 -0.0240692 0.0389286 -0.00852771 -7.66544 -15.6577 15.8064 0.0025 
383 1 0.00494043 -0.0213752 0.00286638 0 0 0 -0.0465319 -0.0773076 -0.112684 0.0222546 0.0373207 -0.00144837 11.4955 -7.94872 -7.28624 0.0025 
273 1 0.00952046 -0.0191779 0.00257777 0 0 0 -0.074119 -0.166844 -0.00855713 0 0 -0.00160516 -19.2832 1.17394 0.800919 0.0025 
366 1 0.0193285 -0.0195969 0.00247585 0 0 0 0.0973741 0.0142892 0.0177509 -0.00122734 -3.03939e-05 0.0229492 -4.72192 -2.11782 -1.99228 0.0025 
159 1 0.0251695 -0.0189684 0.00261438 0 0 0 0.0478809 -0.0727168 0.00918391 0.0106582 -0.00572012 -0.0143689 -2.61234 -0.359497 0.686079 0.0025 
149 1 0.0299618 -0.020819 0.00265112 0 0 0 0.00997905 0.00651903 0.0294331 -0.000824206 -0.000115459 -0.00249534 6.44953 -4.54052 -1.83344 0.0025 
448 1 0.0381966 -0.0198763 0.00263532 0 0 0 0.019128 0.0181772 0.0206196 0.0176834 0.0240579 -0.00207832 9.14919 9.34554 -5.86996 0.0025 
339 1 0.0433296 -0.0194757 0.00246396 0 0 0 0.0189311 -0.0291976 -0.0247379 0.00057464 0.00692558 0.0366992 -10.0967 7.98816 -0.728946 0.0025 
231 1 -0.0447397 -0.0159784 0.00263184 0 0 0 -0.00151054 -0.0816025 0.0285884 -0.00398864 0.00214981 -0.00299826 3.46421 0.767591 13.6826 0.0025 
121 1 -0.039791 -0.0161523 0.00320895 0 0 0 0.0180667 -0.0501273 -0.0494842 -0.00156413 0.00046903 0.00109576 18.5522 6.27408 -7.42471 0.0025 
9 1 -0.0348451 -0.0164005 0.00265157 0 0 0 0.0480946 -0.0276851 -0.0585744 0.00722139 0.00465419 -0.0117054 4.106 2.82507 0.66833 0.0025 
445 1 -0.0296848 -0.0151638 0.00254231 0 0 0 -0.000316898 -0.0183317 -0.00549808 -0.00190156 0.0010786 -0.0298177 0.452232 15.0347 -0.69284 0.0025 
6 1 -0.0252642 -0.0174571 0.00249347 0 0 0 0.0361151 -0.0365515 0.0046192 0.0112549 -0.00557389 0.000656432 10.5422 8.24938 -0.464982 0.0025 
380 1 -0.0202201 -0.0177347 0.00252799 0 0 0 0.0378044 -0.0227536 0.0497719 0 0 -0.00160516 8.26376 9.34489 4.79081 0.0025 
40 1 -0.00633341 -0.016467 0.00252761 0 0 0 -0.0737544 -0.0178283 -0.00158064 -0.00723517 0.0380325 -0.00129792 5.15049 6.79321 -2.27707 0.0025 
52 1 -0.00123675 -0.0164271 0.00246021 0 0 0 -0.0840814 0.106234 -0.0530003 0.00308737 -0.000864783 0.0461727 -7.38645 7.86572 16.6803 0.0025 
405 1 0.00503594 -0.0159431 0.00250261 0 0 0 0.0820991 0.0217827 0.0170393 0.0111846 0.00891669 -0.0154732 3.00477 -5.45997 -4.37183 0.0025 
379 1 0.0146518 -0.0165971 0.00259875 0 0 0 -0.0540866 0.0384108 0.00714241 0.00086145 0.000268021 -0.00295321 3.26516 -7.39307 -8.4101 0.0025 
20 1 0.0288228 -0.0154417 0.00254906 0 0 0 -0.0801862 -0.0433421 -0.0891004 0 0 -0.00160516 -4.49576 13.0708 9.18124 0.0025 
183 1 0.0335262 -0.0172798 0.0025001 0 0 0 -0.0304717 -0.036085 0.0637901 0 0 -0.00160516 2.018 -6.13699 3.75394 0.0025 
386 1 0.0402888 -0.0152693 0.0025592 0 0 0 0.0255135 0.0143705 -0.0541639 -0.00831616 -0.00148974 -0.001137 9.71325 11.317 3.67081 0.0025 
104 1 0.0452124 -0.0144877 0.00251185 0 0 0 0.00159 0.00970427 -0.0166065 0.00833699 0.00154063 -0.00216535 -9.01628 0.65938 7.48778 0.0025 
196 1 -0.0461367 -0.0110638 0.00248393 0 0 0 0.0336606 0.00554349 0.065881 -0.000639531 0.000378138 0.0105818 -9.3439 -7.74441 -13.0167 0.0025 
74 1 -0.038925 -0.0112796 0.00249203 0 0 0 0.0330262 0.0064946 -0.0375623 0.00250357 -0.0269839 -0.0220351 5.18315 -8.97875 11.279 0.0025 
449 1 -0.0336006 -0.0114709 0.00252391 0 0 0 -0.00146673 0.00832482 0.0283365 0.00344866 -0.00524316 -0.00158965 -4.19721 3.75032 -15.5141 0.0025 
36 1 -0.0269623 -0.0109929 0.00254247 0 0 0 -0.0115155 -0.0189292 0.0339713 -0.0169919 -0.00113149 -0.00167511 1.97208 3.08829 6.50594 0.0025 
331 1 -0.0225147 -0.0132428 0.00249606 0 0 0 -0.00688833 -0.0188194 -0.0103528 0.00816592 -0.00388147 0.000465502 3.51128 5.74171 -3.89755 0.0025 
326 1 -0.0163205 -0.0141848 0.00262628 0 0 0 0.0985649 0.0213985 0.041855 3.06821e-07 -8.21032e-07 -0.00160522 -10.9087 17.1334 -30.6333 0.0025 
158 1 -0.0104978 -0.0136499 0.00251243 0 0 0 -0.0274432 -0.0610218 0.0968089 0.0103181 -0.010154 -0.0302235 8.23443 -1.89686 4.32193 0.0025 
226 1 -0.00373458 -0.0120845 0.00267454 0 0 0 -0.128945 -0.0557068 0.0602919 0.0147113 0.00263862 -0.0171574 11.7562 -5.59387 -6.04433 0.0025 
22 1 0.00137365 -0.0121737 0.002607 0 0 0 0.00432134 -0.0279319 0.0760102 -0.0177257 -0.00402871 -0.0308143 15.072 2.18567 8.32885 0.0025 
7 1 0.00988926 -0.0138058 0.00250951 0 0 0 -0.0654277 -0.0532691 -0.0771763 -0.00104742 -0.00898865 -0.0381201 -22.4083 2.91947 2.58059 0.0025 
142 1 0.0190166 -0.0130451 0.00253241 0 0 0 0.0288093 0.0333142 0.115416 -0.0418325 -0.0396624 -0.00468763 4.08958 -0.194262 -8.14267 0.0025 
2 1 0.0238782 -0.014126 0.00262752 0 0 0 -0.00254821 -0.0691721 0.0216142 -0.00450432 -0.0100037 -0.0201039 -5.50933 -2.1041 -7.68187 0.0025 
313 1 0.0359788 -0.0126843 0.00255476 0 0 0 -0.0379058 -0.0171995 -0.0752849 0.00156369 -0.00363695 -0.00493457 -9.85221 -6.92389 -7.1994 0.0025 
238 1 -0.0421783 -0.00728094 0.00252209 0 0 0 0.0401181 0.00747184 -0.0523855 0 0 -0.00160516 0.121252 5.66363 -6.26524 0.0025 
367 1 -0.0303857 -0.00733531 0.00251528 0 0 0 0.166411 -0.0151166 0.022724 0 0 -0.00160516 -7.73625 -2.27288 3.35576 0.0025 
49 1 -0.0233034 -0.00762688 0.00250096 0 0 0 0.02486 -0.0730761 0.0855622 0.00213698 0.0136056 -0.0285807 6.95879 9.6087 -2.04796 0.0025 
252 1 -0.0188018 -0.00982837 0.00254135 0 0 0 -0.039572 -0.0326235 0.182106 -0.00993487 -2.66714e-05 -0.00232724 -4.6751 -5.74079 13.6922 0.0025 
117 1 -0.0138206 -0.00971416 0.00267524 0 0 0 -0.122603 0.0413209 0.0317813 0.00813979 0.00256159 -0.00605775 -16.9353 -2.55684 -13.5693 0.0025 
190 1 -0.00885606 -0.00872145 0.00257489 0 0 0 0.0953198 -0.0418081 0.0203002 -0.000190772 -0.00469552 -0.0122493 0.570889 0.713081 -0.567633 0.0025 
240 1 0.00699887 -0.00915138 0.00251126 0 0 0 0.0577826 0.0981068 0.00742593 0.000931911 0.0166245 -0.0349012 -8.96056 2.28555 15.2255 0.0025 
24 1 0.0118807 -0.00814807 0.00247541 0 0 0 -0.0672024 0.0169989 0.10014 0.0113104 0.00204211 0.0220714 -0.252281 -15.0498 12.7949 0.0025 
233 1 0.0169208 -0.00828923 0.00249533 0 0 0 0.0197079 0.0744974 -0.00635051 0.00957464 -0.0133572 -0.0102501 7.27361 13.7342 0.877141 0.0025 
338 1 0.0219358 -0.00904608 0.00251716 0 0 0 0.0225167 -0.0816097 -0.0442213 0.0325025 0.0387866 -0.00360389 3.53579 3.67936 -1.34313 0.0025 
337 1 0.0304784 -0.00994685 0.00248357 0 0 0 0.0554574 -0.065547 -0.0774936 -0.000180607 0.000726833 0.0133736 -8.99007 13.4837 -4.31366 0.0025 
237 1 0.0379321 -0.00753297 0.00248931 0 0 0 -0.0187339 -0.074973 0.0239622 4.41043e-05 0.000348118 0.00541285 -3.84218 -3.21537 1.82312 0.0025 
426 1 0.0420929 -0.0105775 0.00249354 0 0 0 -0.0544832 -0.011068 0.00472347 0.0184414 0.00784152 -0.0271805 4.02871 -8.62414 7.00245 0.0025 
362 1 0.0467221 -0.00844612 0.00245475 0 0 0 0.0257114 0.0261687 0.00467426 -2.50362e-05 -0.00411815 0.061938 -6.73377 10.0512 1.76518 0.0025 
292 1 -0.0471318 -0.00574952 0.00248184 0 0 0 -0.00919406 0.0266134 0.0041415 0.00194815 -0.0127832 -0.00733191 0.0140423 -3.71159 5.42873 0.0025 
949 1 -0.0361305 -0.00717142 0.00250809 0 0 0 0.129108 -0.00554103 0.0593378 0.00999702 0.0271287 -0.00201194 13.8198 5.07715 3.87466 0.0025 
342 1 -0.0264828 -0.00377173 0.00249436 0 0 0 0.098163 -0.0428553 0.00282827 -0.000670451 0.000716188 0.00120777 -1.97708 5.93139 -13.6882 0.0025 
328 1 -0.0169804 -0.00515173 0.00253127 0 0 0 -0.0165505 0.0658611 -0.00184574 0 0 -0.00160516 -5.85035 3.40512 -0.605274 0.0025 
61 1 -0.00347904 -0.0068337 0.0024808 0 0 0 0.0932372 0.00325731 -0.041713 -0.00403555 0.00293023 0.0124822 14.9266 -0.538017 -2.06016 0.0025 
347 1 0.00215162 -0.00722774 0.00251264 0 0 0 0.0219241 -0.168123 0.0417194 -0.0252815 -0.0193157 -0.0506285 2.96635 4.32863 2.74545 0.0025 
202 1 0.00739466 -0.00407408 0.00271649 0 0 0 -0.0251003 0.027336 -0.00288707 0 0 -0.00160516 -16.4413 5.7769 -6.19813 0.0025 
80 1 0.0175964 -0.00337166 0.00250147 0 0 0 0.0281033 0.0696101 0.000274755 0.0106151 0.0235367 -0.00940254 -6.6862 -4.45741 -5.79119 0.0025 
1046 1 0.0282757 -0.00381519 0.00249137 0 0 0 -0.0103293 -0.0348688 0.0414342 -0.00464855 -0.0100052 0.000910978 -0.0963496 7.61463 10.1637 0.0025 
92 1 0.0329745 -0.00552813 0.00248566 0 0 0 0.0277222 -0.046251 -0.00532265 -0.000324182 0.000470146 0.00981643 -8.19212 -7.32125 -5.40628 0.0025 
305 1 0.0458784 -0.00352123 0.00248958 0 0 0 0.0652739 0.0114123 -0.01121 -0.000543722 0.000817498 0.00557816 2.99152 7.04047 2.17977 0.0025 
1140 1 -0.0474953 -0.000118388 0.00253412 0 0 0 -0.00637029 -0.0890985 -0.0978754 -0.00106883 -0.000451518 -0.00267006 -5.52385 -7.28847 6.82718 0.0025 
945 1 -0.0430092 -0.00231873 0.00249492 0 0 0 0.00444765 -0.0373159 -0.0221455 0.00115924 -0.00574258 -0.0134649 6.33302 0.514195 1.05077 0.0025 
1341 1 -0.0379849 -0.00151632 0.002538 0 0 0 -0.0361777 -0.0145378 -0.0182592 0.0161979 -0.040589 -0.0527454 -6.3732 13.9447 8.50451 0.0025 
98 1 -0.0328468 -0.00292598 0.0024955 0 0 0 -0.0131559 -0.0410218 0.0512256 -0.00290949 -0.000185619 -0.00395083 5.49426 4.03677 16.6696 0.0025 
1337 1 -0.0214709 -0.0029451 0.0025033 0 0 0 -0.0652818 0.0871805 0.0338215 -0.0168921 -0.0181032 -0.0257758 3.33201 4.23362 2.78823 0.0025 
278 1 -0.0122788 -0.00331689 0.00247764 0 0 0 -0.0240232 0.0819119 0.0401648 0.0201639 -0.0191533 0.00639332 -2.99116 11.8937 5.16965 0.0025 
248 1 -0.00726634 -0.00285156 0.00290782 0 0 0 -0.0173176 -0.0600835 -0.124901 -0.000723854 -0.000169394 -0.00263735 7.56542 11.0593 -15.2254 0.0025 
250 1 -0.00252842 -0.0012938 0.00248866 0 0 0 0.00281405 0.147804 -0.0286784 -0.000331056 2.056e-05 0.00621144 13.6277 -1.05964 9.0023 0.0025 
21 1 0.0026867 -0.00166265 0.00274378 0 0 0 0.113873 0.0232827 -0.0213509 0 0 -0.00160516 13.5473 -17.4735 8.25437 0.0025 
154 1 0.0125577 -0.0031155 0.00244633 0 0 0 0.148463 -0.122014 -0.0159582 -0.0224918 0.026397 0.0478839 -5.48688 13.49 9.50826 0.0025 
971 1 0.0227211 -0.0020638 0.0026351 0 0 0 -0.014191 -0.0143778 0.00164039 -0.0096201 0.00812711 -0.0277438 -15.6406 0.0906085 -5.05319 0.0025 
368 1 0.0361788 -0.00161791 0.00247906 0 0 0 -0.0392365 -0.0884412 0.075844 -0.000446694 0.0211048 -0.0152152 11.9641 4.89118 19.7238 0.0025 
425 1 0.0408612 -0.00336041 0.00250404 0 0 0 0.0581294 -0.129038 0.0060829 0.000493863 -0.000162717 -0.00158567 6.87883 -0.428903 -0.277482 0.0025 
73 1 -0.0046615 -0.047176 0.00672715 0 0 0 0.0149433 -0.0153157 -0.099661 -0.0273231 0.0016938 -0.00296556 0.937621 -22.6541 -2.64731 0.0025 
150 1 0.00476848 -0.0472809 0.00315742 0 0 0 0.0452522 0.0113391 -0.0884747 0.00514347 0.00947204 0.00155768 -7.23739 3.7202 2.13589 0.0025 
411 1 -0.0185149 -0.0436613 0.00629727 0 0 0 -0.00871636 -0.00900326 -0.130152 0 0 -0.00160516 8.45703 12.6577 -11.7515 0.0025 
352 1 -0.0116777 -0.046013 0.00579511 0 0 0 -0.0189007 -0.0225044 -0.105862 0.0432933 -0.0177115 -0.0524325 4.79136 3.17708 1.72539 0.0025 
82 1 -0.024098 -0.0408505 0.00676301 0 0 0 0.055311 -0.019316 0.0947532 0.0148111 -0.0206382 0.0364796 -1.52548 16.7514 -3.40408 0.0025 
8 1 -0.0140581 -0.041251 0.00636586 0 0 0 0.00893919 0.11142 -0.0245686 0.00789826 -0.00618105 -0.0108913 -6.42548 -12.1567 3.9353 0.0025 
444 1 -0.00746747 -0.0427897 0.00623559 0 0 0 -0.151189 -0.0403154 0.0254318 0 0 -0.00160516 6.03246 -13.1296 18.4495 0.0025 
377 1 0.00413225 -0.0425682 0.00685142 0 0 0 0.0300969 0.0330358 0.0337558 0 0 -0.00160516 6.3304 -10.906 2.99831 0.0025 
60 1 0.00906921 -0.0412809 0.00673804 0 0 0 0.0257633 0.116102 0.0209849 0.00110028 -0.00252325 0.000643336 12.5227 -0.656909 10.9272 0.0025 
102 1 -0.0287889 -0.0376733 0.00684674 0 0 0 0.0483815 0.0318182 -0.0335174 0 0 -0.00160516 -8.53609 -5.10555 -7.50113 0.0025 
16 1 -0.0181433 -0.0360406 0.00594571 0 0 0 -0.00456907 0.0113766 0.0336354 -0.00374114 0.0202685 0.01797 4.38419 1.1731 14.2898 0.0025 
301 1 -0.00971048 -0.0382664 0.00670201 0 0 0 -0.0293474 0.0919049 0.0448907 -0.0406524 -0.0100731 -0.0160002 -22.3658 17.074 -20.8052 0.0025 
197 1 -0.00479963 -0.037593 0.00690432 0 0 0 0.0736432 -0.0605797 0.0245541 0.0247181 0.0112605 -0.0133728 -12.2664 -10.04 -11.6656 0.0025 
70 1 0.000547355 -0.0370638 0.00686061 0 0 0 -0.0279447 -0.0277744 0.0161022 -0.000851625 -0.00238258 0.0035224 -4.35613 -7.00101 3.43366 0.0025 
388 1 0.0139586 -0.0387965 0.00661693 0 0 0 -0.0161596 -0.0225004 -0.0307338 0 0 -0.00160516 -9.33804 -22.6375 -2.5602 0.0025 
332 1 0.0215667 -0.038203 0.00534486 0 0 0 -0.015932 -0.0229512 -0.0896686 0 0 -0.00160516 -4.58512 12.1942 8.91908 0.0025 
186 1 0.02788 -0.0385139 0.00681966 0 0 0 -0.0880967 0.0317562 0.0360802 -0.0355192 0.0528548 0.000417594 6.76716 14.1713 23.889 0.0025 
348 1 -0.0247698 -0.0347193 0.00581881 0 0 0 0.00646383 -0.0572813 -0.0339537 0 0 -0.00160516 10.0874 -5.51505 15.1075 0.0025 
378 1 -0.0123898 -0.0339582 0.00619132 0 0 0 0.123137 -0.0232505 -0.0616797 0.0246442 -0.0119435 0.0164092 -8.8568 16.3968 -10.0451 0.0025 
170 1 0.00748606 -0.033688 0.00526062 0 0 0 -0.00865942 -0.0068956 -0.0673641 0.0117273 0.000675359 -0.0292078 7.05064 2.73247 1.12984 0.0025 
589 1 0.0176248 -0.0353503 0.00690892 0 0 0 0.0278388 -0.0126068 -0.017632 0 0 -0.00160516 -6.78076 7.30734 6.98696 0.0025 
262 1 0.0217743 -0.0321667 0.00664313 0 0 0 0.0367898 -0.0590218 0.0149945 0.0135372 0.0180871 0.0310444 13.5737 -7.6398 19.3822 0.0025 
194 1 0.0270909 -0.03335 0.00684487 0 0 0 0.0199433 -0.0822756 -0.0693666 0.00493686 0.00397037 -0.0118134 -17.3786 -18.5923 -2.97339 0.0025 
280 1 0.0321583 -0.0348427 0.00723537 0 0 0 -0.0395713 0.0995812 0.0106496 0 0 -0.00160516 11.6886 0.877599 -15.5608 0.0025 
11 1 -0.0344335 -0.0303153 0.00660578 0 0 0 0.0530531 -0.0267624 0.0160848 -0.015505 -0.00569902 0.0199217 0.510276 0.323477 8.64524 0.0025 
314 1 -0.0292333 -0.0315278 0.00598698 0 0 0 0.0233742 0.0481291 -0.030187 0.000522326 0.0124669 0.00753102 -4.68218 -5.61175 4.43254 0.0025 
152 1 -0.015982 -0.030544 0.00666967 0 0 0 0.0238123 0.015766 -0.00889112 -0.00526511 0.00533018 0.00784998 4.52207 10.213 0.618661 0.0025 
667 1 -0.00262538 -0.0321001 0.00648771 0 0 0 0.0177051 -0.0436723 0.0220243 0 0 -0.00160516 -8.82837 7.34919 11.7821 0.0025 
160 1 0.00281242 -0.0317954 0.00620055 0 0 0 -0.045721 0.0749005 0.0154595 0.0024271 0.00475839 0.00715573 1.07603 -5.69754 0.263406 0.0025 
441 1 0.00860646 -0.0288789 0.00657046 0 0 0 0.113995 -0.0153868 0.0399376 0.0176552 -0.000141272 -0.0134003 14.393 -28.9108 -4.23589 0.0025 
320 1 0.0162634 -0.0304415 0.00687272 0 0 0 0.0199677 -0.130697 0.0486312 -0.00354778 -0.00125531 0.00639995 -0.153492 12.8992 6.89901 0.0025 
215 1 0.0307683 -0.0299624 0.00692458 0 0 0 0.0295954 0.00633521 -0.0563677 0.00240764 0.00229419 -0.00708602 -8.99594 -6.85596 -0.823219 0.0025 
223 1 0.036247 -0.0306016 0.00698544 0 0 0 -0.0783452 0.0971279 -0.0366909 0 0 -0.00160516 19.7976 9.35036 6.05449 0.0025 
260 1 -0.0386919 -0.0275092 0.00679214 0 0 0 0.0281041 0.00416008 -0.0490835 -0.030783 -0.0131845 -0.0246609 -0.189355 0.22479 -12.9541 0.0025 
294 1 -0.0306825 -0.0263505 0.00665649 0 0 0 0.0256588 -0.0882302 -0.0141653 0.014655 -0.00633075 -0.00498974 -1.68592 -1.29743 -9.52395 0.0025 
359 1 -0.0255027 -0.0282896 0.00675635 0 0 0 0.00812537 -0.0230177 0.0138502 0.00226809 -0.011214 -0.0018195 23.1499 0.370586 -0.864279 0.0025 
288 1 -0.0166153 -0.0255458 0.00663131 0 0 0 -0.109534 -0.022006 0.0320524 -0.00210711 -0.00309738 -0.00181473 -10.564 -8.32983 2.21176 0.0025 
350 1 -0.00560302 -0.027914 0.00700966 0 0 0 0.158738 0.0460219 0.03387 0 0 -0.00160516 -19.0531 1.91741 16.5673 0.0025 
164 1 -0.00274039 -0.0257213 0.0033823 0 0 0 -0.000535265 -0.00336867 -0.0899394 0 0 -0.00160516 8.64393 4.67267 -1.04619 0.0025 
277 1 0.015301 -0.0253439 0.00709101 0 0 0 0.0244853 0.0437064 0.024863 0 0 -0.00160516 -0.226715 -29.4649 -12.1393 0.0025 
323 1 0.0206555 -0.0272957 0.00645937 0 0 0 -0.0504582 0.0469204 0.00734482 0 0 -0.00160516 -3.18487 7.6536 -24.3086 0.0025 
508 1 0.0259776 -0.0283963 0.00697442 0 0 0 0.0177074 -0.0620951 -0.0327026 0.000204698 -0.000306434 -0.00187581 3.93739 -5.2901 -2.38095 0.0025 
26 1 0.0394063 -0.0265785 0.00674958 0 0 0 -0.00362927 -0.0408651 -0.0101974 -0.0236063 0.0202396 -0.00412799 -8.80703 -0.874569 3.14025 0.0025 
372 1 -0.0405873 -0.022695 0.00662107 0 0 0 0.0313324 -0.0456128 0.0267674 -0.00282409 0.00973576 0.0123521 2.63664 2.21729 -4.61769 0.0025 
192 1 -0.0264473 -0.0234007 0.00661508 0 0 0 -0.0230928 0.0173915 -0.0611689 -0.00544902 0.00853703 -0.0085411 -2.76817 2.8325 3.24874 0.0025 
163 1 -0.0214878 -0.0243879 0.00659764 0 0 0 -0.0638125 -0.0277717 0.0253562 0.00404133 0.00953938 0.0113534 5.63001 -2.94164 -2.58812 0.0025 
145 1 -0.0130171 -0.0220898 0.00677284 0 0 0 -0.0226089 0.0123173 0.00701919 0.00230272 0.00244061 -0.00148068 -12.2522 -4.86278 9.35941 0.0025 
165 1 -0.00793386 -0.0219487 0.00691308 0 0 0 -0.0241902 -0.00793261 -0.0606752 0 0 -0.00160516 15.4321 -15.1089 -5.0741 0.0025 
235 1 0.000794652 -0.0227042 0.00744485 0 0 0 0.0679869 0.029725 0.0384844 -0.0178591 -0.0140292 -0.0182985 -1.18104 -4.38943 8.82614 0.0025 
57 1 0.00636266 -0.0241453 0.00703075 0 0 0 0.100436 -0.149993 -0.0777777 0.0027604 -0.00381867 -0.00610418 7.21238 -32.8983 -21.8357 0.0025 
219 1 0.0111111 -0.022504 0.00661373 0 0 0 -0.0446413 0.0884998 0.108408 0 0 -0.00160516 2.42763 20.1328 -10.4065 0.0025 
269 1 0.0208307 -0.0221254 0.00655387 0 0 0 0.0464231 -0.0866227 -0.0325209 0.0192664 -0.00611591 -0.00384962 -15.0604 -7.14251 -4.21806 0.0025 
391 1 0.0262362 -0.0228261 0.00586589 0 0 0 0.0356466 0.0217405 0.0359299 0 0 -0.00160516 -8.49031 -11.9017 -15.0386 0.0025 
435 1 0.0307979 -0.0248847 0.00582606 0 0 0 0.0090907 -0.0103641 0.00345773 0.0244695 0.0247099 0.0377359 -13.3153 -1.95842 8.94396 0.0025 
439 1 -0.0437767 -0.01846 0.00691936 0 0 0 -0.0651385 -0.0184654 -0.0428942 -0.0407607 -0.0389926 -0.0182418 -6.35868 9.09053 -0.0156196 0.0025 
382 1 -0.0331231 -0.0206804 0.00453283 0 0 0 -0.00989959 -0.0269768 -0.0306689 0.00417296 -0.00974182 0.00216445 7.8747 3.56148 -10.6686 0.0025 
371 1 -0.0278586 -0.0185292 0.00662833 0 0 0 0.0332077 0.0103356 0.0147911 -0.000257035 -0.000133885 -0.00118218 -10.6105 -0.790343 -14.4822 0.0025 
120 1 -0.0229266 -0.0193658 0.00651468 0 0 0 0.000753831 -0.0520566 -0.0316897 0.00262883 0.00885481 0.00911931 -2.67061 -18.6871 -26.5149 0.0025 
201 1 -0.0178633 -0.0207277 0.0070739 0 0 0 0.0321578 0.0599361 -0.128051 0.00222619 -0.0407905 -0.0465194 8.36854 0.714402 -3.8055 0.0025 
41 1 -0.00284487 -0.0191159 0.00633886 0 0 0 -0.0163949 0.0630013 0.0375103 -0.00196434 -0.00318857 0.00510998 -10.5468 5.09217 11.2546 0.0025 
353 1 0.00205208 -0.0181604 0.00580685 0 0 0 -0.0232312 0.0693226 -0.0411261 -0.0100694 -0.00555362 0.0110923 -9.60996 26.5221 -16.3419 0.0025 
135 1 0.00718019 -0.0187263 0.00702148 0 0 0 0.0338765 0.0957215 -0.0269919 0.0319369 0.0128063 -0.0363304 -19.8181 -3.85738 -10.409 0.0025 
199 1 0.0161937 -0.0203893 0.00701693 0 0 0 0.0296919 -0.00518111 0.0161961 -0.0113618 0.000825552 0.000728927 -3.68866 38.7462 -7.16964 0.0025 
356 1 0.0284128 -0.0182631 0.00667076 0 0 0 -0.0156953 -0.038578 0.0416837 0 0 -0.00160516 -12.3489 12.892 -18.7732 0.0025 
729 1 0.0334129 -0.0205805 0.00625665 0 0 0 -0.0226525 -0.0878824 -0.0157573 -0.00155662 9.92175e-05 -0.00294423 6.4307 -2.21994 5.05205 0.0025 
282 1 0.0416932 -0.0212432 0.00682911 0 0 0 0.132557 0.0476525 -0.0536671 -0.00313475 -0.00339421 0.00586061 23.0896 5.20185 -5.85875 0.0025 
361 1 -0.0320257 -0.0157612 0.00687627 0 0 0 -0.00172609 -0.0145383 0.0843311 -0.035705 -0.0303976 0.00176284 14.6237 3.67102 -16.2471 0.0025 
436 1 -0.0247711 -0.0143699 0.00684076 0 0 0 0.0583785 0.0104617 -0.0938944 0.00021927 -0.00321952 -0.00389059 3.84532 -4.65543 -9.23617 0.0025 
375 1 -0.0147831 -0.01633 0.00721732 0 0 0 -0.0408573 0.038162 -0.0166869 0 0 -0.00160516 24.5742 -15.6982 7.82111 0.0025 