ITEM: TIMESTEP
19200
ITEM: NUMBER OF ATOMS
1800
ITEM: BOX BOUNDS mm mm mm
-0.05 0.05
-0.05 0.05
0 0.15
ITEM: ATOMS id type x y z ix iy iz vx vy vz fx fy fz omegax omegay omegaz radius 
410 1 -0.00806744 -0.0467552 0.00249407 0 0 0 0.0141841 -0.0706219 -0.102262 -1.45371e-05 0.0002044 0.00249316 -18.1085 2.38084 1.34647 0.0025 
255 1 -0.00145508 -0.0474941 0.00245939 0 0 0 0.0452442 -0.00179814 0.0192781 0.0102729 -0.0267694 0.0298057 -1.0069 3.38517 -4.74634 0.0025 
150 1 0.00475857 -0.0472916 0.00285676 0 0 0 -0.0421838 -0.0115177 0.00783228 0.0152074 0.0159115 -0.000567212 5.50478 -3.66029 7.38078 0.0025 
241 1 0.00995146 -0.0464476 0.00254855 0 0 0 0.0029258 0.0141898 0.0476911 0.00363161 -0.00433661 -0.00169416 3.03431 -5.77564 1.21542 0.0025 
217 1 -0.0155296 -0.0445813 0.00247102 0 0 0 -0.130655 -0.0301277 -0.0281204 0.0015285 0.000628894 0.0314512 -8.49879 -2.44891 1.62452 0.0025 
218 1 -0.00404644 -0.0432711 0.00252957 0 0 0 0.0563432 -0.084414 0.0130686 -0.00682045 0.0205814 -0.000284218 2.07712 2.4111 -8.59408 0.0025 
28 1 0.00156606 -0.0435005 0.00249768 0 0 0 0.00946835 -0.0437385 -0.0310813 -0.0170403 0.0193072 -0.0013313 5.37986 -6.55679 -5.10803 0.0025 
279 1 0.0167645 -0.0444159 0.00249355 0 0 0 0.0378107 0.0509631 -0.0638332 -0.0351044 -0.0136172 0.00150217 8.24791 9.09725 -6.01514 0.0025 
413 1 -0.0264749 -0.0393962 0.00249333 0 0 0 0.0214168 -0.0102313 0.0156468 0.00744249 -0.00612156 -0.0101425 -3.37318 5.26257 6.65314 0.0025 
37 1 -0.0221298 -0.0419692 0.0025185 0 0 0 0.0257347 -0.0165353 0.00807448 0.0014676 -0.000847301 -0.00485271 -1.58403 -1.24532 -1.91906 0.0025 
103 1 -0.0177041 -0.0396152 0.00270809 0 0 0 0.0695182 -0.0414653 0.0254196 -0.000754818 -0.00503362 -0.00470606 -5.18306 -18.6569 -3.65581 0.0025 
18 1 -0.0109445 -0.0423292 0.00255605 0 0 0 -0.00448049 0.0312879 0.0678765 0.0289784 -0.00938407 -0.0312449 -2.36306 -6.16175 12.452 0.0025 
141 1 0.00668311 -0.0426791 0.00251131 0 0 0 -0.032257 -0.0651007 0.00253488 0.00491641 -0.0356258 -0.00277156 -4.1206 -1.83544 -0.222478 0.0025 
230 1 0.0123858 -0.0419752 0.00250551 0 0 0 -0.0199252 -0.011278 0.0609064 0 0 -0.00160516 -1.21506 0.54543 -1.32641 0.0025 
409 1 0.0213093 -0.0424281 0.00253872 0 0 0 -0.0586018 0.0182845 -0.0902437 0.0350572 0.0134174 -0.000605609 -8.98484 -2.96609 -1.50221 0.0025 
389 1 0.0256896 -0.0399792 0.00246043 0 0 0 0.071017 0.0374858 0.0128088 0.00354854 -0.0174605 0.0346832 -11.2042 -0.831218 3.1586 0.0025 
95 1 -0.0220803 -0.0368673 0.00250453 0 0 0 -0.0228004 0.0072787 0.000162081 -0.000364106 -0.00434204 -0.00432997 2.44879 -1.46166 -11.4948 0.0025 
438 1 -0.0130645 -0.0377709 0.00251385 0 0 0 0.0314868 -0.082934 -0.0361032 0.00115759 0.000451338 -0.00159194 -10.8524 -3.6812 -10.6947 0.0025 
167 1 -0.00692274 -0.0392183 0.00253782 0 0 0 0.074547 0.00729533 0.0180833 -0.0148292 0.0189796 -0.0020331 -8.15826 -4.84785 1.10408 0.0025 
85 1 -0.00108342 -0.0392072 0.00249462 0 0 0 -0.0360495 0.0231316 0.0444996 -0.00288542 -0.00447457 -0.00905972 -2.8632 1.3817 -4.58233 0.0025 
268 1 0.00583542 -0.0377948 0.00250497 0 0 0 -0.00746417 -0.0544965 -0.023781 0.0124518 0.0147392 -0.00646867 -1.59789 -6.2871 -1.20617 0.0025 
126 1 0.0108234 -0.0371165 0.0025511 0 0 0 -0.0447405 -0.0757316 -0.0398392 0 0 -0.00160516 3.23757 8.01318 -7.14662 0.0025 
101 1 0.0177347 -0.0388106 0.00264743 0 0 0 0.106655 0.0129328 -0.0096627 0 0 -0.00160516 0.360911 15.9144 7.43932 0.0025 
309 1 0.0298249 -0.0369925 0.00259304 0 0 0 -0.0419146 -0.0689831 0.0503668 -0.0100126 0.0130595 -0.00232272 -4.69332 -11.6107 12.986 0.0025 
10 1 -0.0335722 -0.0336192 0.00244765 0 0 0 -0.000129606 0.0467195 -0.0055711 0.0422702 -0.0450331 0.0746239 5.38025 -9.20557 5.38042 0.0025 
244 1 -0.0287124 -0.0349336 0.00255904 0 0 0 -0.00947964 0.00148195 -0.0227122 -0.00118085 0.00258072 -0.0014682 -0.899204 0.960289 -12.6128 0.0025 
182 1 -0.0204328 -0.0321544 0.00246941 0 0 0 0.0482859 0.0263377 0.0115406 0.00283353 -0.00879749 0.0329041 0.196378 9.74638 -0.339079 0.0025 
81 1 -0.015182 -0.0329708 0.00254707 0 0 0 -0.0978254 0.00229369 0.00640768 -0.00322096 -0.000669315 -0.00419291 -6.90268 7.00412 -3.10054 0.0025 
291 1 -0.00872647 -0.0345542 0.00245886 0 0 0 -0.00693881 -0.0129877 0.0176869 0.00143798 0.00189194 0.0532553 4.21498 -1.62443 -12.1451 0.0025 
295 1 -0.00363459 -0.0348908 0.00248998 0 0 0 -0.0158603 -0.00818057 0.00649085 0.000202221 0.000257494 0.00494301 -7.68003 2.24949 -0.2477 0.0025 
68 1 0.00182227 -0.0348712 0.00252395 0 0 0 -0.00375986 0.0086228 -0.00811548 -0.010291 -0.0205169 -0.00376765 3.94258 5.12962 0.312324 0.0025 
234 1 0.0151948 -0.0341847 0.00247281 0 0 0 0.0722346 0.0161855 0.0341289 0.00844122 -0.000308149 0.012082 -5.84225 2.45346 7.83257 0.0025 
213 1 0.0202706 -0.0341804 0.00248972 0 0 0 -0.00952693 -0.00128579 0.0509924 -0.0179946 -0.0222798 0.000607849 -10.9077 7.66379 10.6365 0.0025 
134 1 0.025164 -0.0350374 0.00249732 0 0 0 -0.0161212 0.0212169 -0.0717976 0.0413811 -0.0482777 0.00225007 8.94764 0.851603 5.77254 0.0025 
369 1 0.0337322 -0.033468 0.0026347 0 0 0 -0.00182804 -0.0642447 0.00486247 -0.0112386 0.012292 -0.00141753 -1.48173 11.6865 -3.74158 0.0025 
306 1 -0.0368517 -0.0299187 0.0024825 0 0 0 -0.02513 0.0229221 -0.0303282 -0.010453 0.0177388 -0.0494673 4.94474 14.1239 2.04616 0.0025 
266 1 -0.0314443 -0.0290691 0.00251165 0 0 0 -0.00305555 0.00353143 0.00853975 0.00231508 0.00373076 -0.0361489 0.241595 -0.808686 -9.6069 0.0025 
113 1 -0.0253987 -0.0310977 0.00247475 0 0 0 0.051988 -0.0622186 -0.0813979 -0.00916016 0.000332582 -0.0195835 -3.14489 7.85187 -12.4896 0.0025 
265 1 -0.0111542 -0.0300174 0.00249651 0 0 0 -0.00799618 -0.0362052 -0.1043 -0.00152729 -0.00576492 -0.0236379 -12.5832 3.32948 6.70208 0.0025 
115 1 -0.00590941 -0.0304293 0.00262514 0 0 0 -0.0247765 0.0287414 0.057722 0.000219218 0.000294023 -0.00160317 2.04683 -3.77225 14.663 0.0025 
225 1 -2.78366e-06 -0.0302602 0.00252094 0 0 0 0.0219569 -0.0963044 -0.0887496 -0.0148299 0.0327556 -0.00658641 -0.506536 -4.97648 9.13033 0.0025 
30 1 0.00526876 -0.0299508 0.00252659 0 0 0 -0.0168407 0.00322068 -0.0413845 0.0115734 0.00910484 -0.0223209 -3.7308 -5.71979 -6.05449 0.0025 
220 1 0.0110176 -0.0312968 0.00249788 0 0 0 0.058369 0.0247541 -0.103704 -0.00153263 -0.0183918 -0.0238018 15.6863 -15.6098 -11.439 0.0025 
440 1 0.0188009 -0.0294361 0.00260188 0 0 0 0.0112458 -0.0701349 0.0148322 -0.0036117 0.0258055 -0.010259 -9.13772 -2.92035 4.13924 0.0025 
13 1 0.0239155 -0.0302581 0.00253752 0 0 0 0.0135897 0.00948275 0.0697852 -0.0169396 0.037963 -0.0143636 -4.4905 0.397711 -7.37911 0.0025 
66 1 0.0289768 -0.0318077 0.00257894 0 0 0 -0.0423535 0.0399306 0.0102481 0.00518834 -0.0204396 -0.00168697 19.7846 -8.41771 -1.59564 0.0025 
296 1 -0.0398598 -0.0256354 0.00251825 0 0 0 -0.000458102 0.0434546 -0.0496717 -0.00765557 0.012412 -0.0270626 2.82443 8.72564 -7.85127 0.0025 
365 1 -0.0347857 -0.0252995 0.00262036 0 0 0 0.0959661 0.00609418 -0.0805045 0 0 -0.00160516 0.826014 5.94294 5.54111 0.0025 
195 1 -0.0271542 -0.0263562 0.00260081 0 0 0 0.0792034 -0.0226485 0.000661698 -0.00972702 0.00698621 -0.0175652 -0.132635 8.18969 5.32653 0.0025 
394 1 -0.022006 -0.0274265 0.00252865 0 0 0 0.00475566 -0.0147854 -0.0404924 -0.0509637 0.0191534 -0.000293854 2.65906 -0.00589994 13.5385 0.0025 
434 1 -0.0171206 -0.0282325 0.00256701 0 0 0 0.0494133 0.0529663 0.000790804 0.0189323 -0.0218937 -0.0505697 -11.6022 -7.19518 4.26797 0.0025 
374 1 -0.0132808 -0.0250708 0.00256389 0 0 0 -0.0114495 0.0315127 -0.0239932 0.0157125 0.0126902 -0.000626299 7.00958 3.38251 -0.154489 0.0025 
286 1 -0.00814521 -0.0257878 0.00260764 0 0 0 0.0699758 0.021255 0.0149566 -0.000582494 -0.000754912 -0.0015826 -3.79001 -17.5845 -0.0835889 0.0025 
164 1 -0.00308375 -0.0261474 0.00281572 0 0 0 0.0439884 0.0145491 -0.0541582 0.00161085 -0.0035884 -0.00119624 10.7988 7.32759 -5.31956 0.0025 
76 1 0.0024046 -0.0258103 0.00305645 0 0 0 0.0470793 -0.0376421 -0.146158 0.0120329 -0.0217054 0.00316544 -4.40992 2.82666 -6.28881 0.0025 
32 1 0.00929417 -0.0261063 0.00248208 0 0 0 0.0786567 0.0809605 0.0242112 -0.0123824 0.00197939 0.013541 27.4831 1.86721 -1.91994 0.0025 
346 1 0.0140944 -0.0274239 0.0026786 0 0 0 -0.040152 -0.0340505 0.0102291 0.0473519 0.0381762 -0.00075061 16.0739 1.87105 10.9241 0.0025 
307 1 0.0231138 -0.0253548 0.00246235 0 0 0 0.0775005 0.0371016 0.0638374 -0.0196762 0.0264529 0.0440444 2.53756 13.2215 -3.25167 0.0025 
304 1 0.0278236 -0.0269714 0.00253772 0 0 0 -0.047443 0.0903977 0.0286824 0.00967364 0.0165169 -0.00383433 -7.81537 5.49138 3.55217 0.0025 
285 1 0.0330163 -0.0284787 0.00257041 0 0 0 0.0322241 0.100141 -0.0399732 -0.00900085 -0.0237239 -0.0119815 14.6629 7.42611 -11.5161 0.0025 
205 1 0.0382169 -0.0282127 0.0024994 0 0 0 0.018028 0.0320734 0.0121432 -0.000642103 0.000438181 -0.0016067 -11.8727 9.94961 -10.1233 0.0025 
187 1 -0.0283063 -0.0214436 0.00250319 0 0 0 -0.0126522 -0.00485967 0.0143362 0.0151088 -0.00181992 -0.0127576 -1.744 9.14865 1.33087 0.0025 
15 1 -0.023465 -0.0226479 0.00249936 0 0 0 0.0625215 0.00494913 0.0770467 -0.00104201 -6.66712e-06 -0.00235755 1.63944 -2.18249 -8.73804 0.0025 
421 1 -0.0185072 -0.0232064 0.00247358 0 0 0 0.0212337 -0.057387 0.0464526 0.00497401 0.000898204 0.0262101 -4.40597 -2.3893 7.35776 0.0025 
334 1 -0.00529371 -0.0216863 0.00246167 0 0 0 -0.0169833 -0.0028491 0.0540793 0.00778672 0.00403898 0.0463236 3.72235 -12.905 -5.86184 0.0025 
87 1 -0.000216179 -0.0216287 0.00247036 0 0 0 -0.0020491 -0.100275 -0.00890258 -0.0129764 0.023642 0.0264156 1.84124 2.55482 0.674581 0.0025 
75 1 0.0136984 -0.022144 0.00250497 0 0 0 -0.076373 0.0281037 0.0450071 0.0240025 -0.0430861 -0.00246307 12.7809 -17.3708 0.157817 0.0025 
424 1 0.0181801 -0.0244878 0.00281972 0 0 0 0.0234837 -0.0282656 -0.0164401 -0.000540218 0.00313948 -0.00140025 -1.95957 12.3634 -2.38478 0.0025 
132 1 0.034985 -0.0239195 0.00261861 0 0 0 -0.0287129 0.0032804 0.0165534 0.0132183 0.0268492 -0.00121288 10.8415 -6.9887 2.51565 0.0025 
44 1 0.0410368 -0.0237531 0.00249304 0 0 0 0.0483531 0.086 0.0126221 0.0240416 -0.00635463 -0.0289587 -12.4435 -4.96351 -3.5481 0.0025 
58 1 -0.0424574 -0.0213087 0.00249156 0 0 0 0.0357903 -0.0586791 0.0240851 -0.000616717 0.00251509 -0.000509524 0.451367 7.1942 -5.35618 0.0025 
404 1 -0.0373924 -0.0210334 0.00247392 0 0 0 0.0617257 0.0376165 -0.0472496 0.000823079 0.00031707 0.0239473 -5.29169 13.0265 1.00706 0.0025 
380 1 -0.0197659 -0.018229 0.0026467 0 0 0 0.0114298 -0.0243389 -0.0193593 -0.0152946 -0.00846426 -0.000701361 -2.70339 -9.94754 -3.31212 0.0025 
293 1 -0.0149554 -0.0194713 0.00258676 0 0 0 0.114078 -0.0595857 0.019001 0.0024996 0.000502073 -0.00175894 9.65243 -13.0978 -7.84694 0.0025 
433 1 -0.0102355 -0.0210325 0.00247772 0 0 0 -0.029726 0.0315074 -0.013292 0.013584 -0.00775606 0.0212973 -1.94934 -1.37332 1.93164 0.0025 
383 1 0.00490759 -0.0211814 0.00250351 0 0 0 -0.00984151 0.0617467 -0.0550324 -0.00297235 0.00824259 -0.0106595 15.678 -7.43461 -3.00305 0.0025 
273 1 0.00968519 -0.0192236 0.00251793 0 0 0 0.0146119 -0.0557493 0.0294592 -0.0265639 0.0214164 -0.00175927 -4.81129 0.971001 -8.53204 0.0025 
366 1 0.018848 -0.0195372 0.00254397 0 0 0 -0.129859 0.0513054 -0.0209419 0 0 -0.00160516 17.715 3.68932 13.2458 0.0025 
159 1 0.0249858 -0.0193179 0.00255126 0 0 0 -0.101565 0.0277924 0.0976661 -0.0124765 -0.017852 -0.00329059 -7.9381 -8.29227 8.13826 0.0025 
149 1 0.0297193 -0.0208445 0.00257289 0 0 0 -0.032826 0.106888 -0.026707 0.0185541 -0.00626024 -0.000576744 14.3202 -8.52792 12.1217 0.0025 
448 1 0.0379341 -0.0198727 0.00252513 0 0 0 0.0182418 -0.0348062 -0.0133743 -0.0158794 0.0219675 -0.00174666 -7.03964 -8.20537 -7.13015 0.0025 
339 1 0.0433675 -0.0192864 0.0024707 0 0 0 0.0346605 -0.0437945 0.0042331 -0.00291626 -0.00209333 0.0265192 13.774 -4.17204 -2.89052 0.0025 
231 1 -0.0445328 -0.0164638 0.00252308 0 0 0 0.035058 -0.020969 0.0227585 -0.000233476 -0.00305201 -0.00776365 -8.06147 1.09441 -0.198131 0.0025 
121 1 -0.0395457 -0.0164972 0.00283138 0 0 0 -0.0142494 0.0348991 0.0434403 0.00112733 -4.97931e-05 -0.00157286 10.7164 10.3036 -1.00154 0.0025 
9 1 -0.0344679 -0.0168356 0.00249136 0 0 0 -0.0148272 0.0269553 0.0161605 -0.00403663 -0.0142158 0.00374912 5.60588 3.82068 6.34945 0.0025 
445 1 -0.0294952 -0.0158482 0.00257923 0 0 0 0.0174976 -0.0708746 0.0292488 0.000479096 -0.000509433 -0.0015656 0.703674 -6.04115 3.24097 0.0025 
6 1 -0.02485 -0.0178405 0.00251922 0 0 0 0.0383778 0.0144115 -0.0540969 0.00143407 0.00125653 -0.0026319 -2.48852 12.0995 4.95411 0.0025 
40 1 -0.00658491 -0.0166699 0.00250278 0 0 0 -0.0634079 0.0122719 -0.0186109 0.00288627 0.000724153 -0.00435957 -2.4541 -0.893556 8.83664 0.0025 
52 1 -0.00151212 -0.0167988 0.00248102 0 0 0 0.0318938 0.0127861 0.0105503 -0.00167407 0.00662235 -0.0283963 3.0826 2.15787 -2.79672 0.0025 
405 1 0.00546986 -0.0161616 0.00248938 0 0 0 -0.156659 -0.00824696 -0.0314401 0.000380502 -1.88613e-05 0.00601423 6.64367 4.54236 8.72183 0.0025 
379 1 0.0143071 -0.0172087 0.00248829 0 0 0 -0.0394765 -0.0517385 0.000483907 0.00291864 0.021888 0.00778039 10.1289 2.55171 -15.3282 0.0025 
2 1 0.0239096 -0.0144661 0.00247905 0 0 0 -0.000360756 -0.0408573 -0.0103056 0.0169824 0.0212774 0.0191799 6.94387 -1.66589 -11.0898 0.0025 
20 1 0.0287211 -0.0159188 0.0024914 0 0 0 -0.0580101 -0.0631766 -0.036752 -0.000883599 0.0129276 -0.0223195 -2.98927 -4.49578 8.65674 0.0025 
183 1 0.0334856 -0.0174753 0.00249571 0 0 0 0.0570961 -0.0998956 0.0541942 -0.00809632 -0.0168314 -0.0305162 -2.8711 -11.8194 -1.82898 0.0025 
386 1 0.0403039 -0.0152662 0.0024988 0 0 0 -0.052482 0.0455529 -0.0265454 1.18557e-05 -1.99261e-05 -0.00114143 1.60416 -9.19941 -4.44731 0.0025 
104 1 0.0452586 -0.0145501 0.00247622 0 0 0 -0.0875561 0.0423021 0.00172258 -0.0315712 0.00091378 0.0106207 -7.55874 -6.22852 -7.76658 0.0025 
196 1 -0.0459974 -0.0116352 0.00253498 0 0 0 0.0234895 0.0148138 -0.0346306 0 0 -0.00160516 14.1196 -2.11587 -1.82424 0.0025 
74 1 -0.0392428 -0.011495 0.00249859 0 0 0 -0.00817886 -0.0242916 0.0382896 0.00344994 -0.00109404 -0.0246445 2.17254 -12.0841 3.69136 0.0025 
449 1 -0.0328349 -0.0121322 0.0025195 0 0 0 0.0143771 -0.0159235 0.0258256 0.00368478 0.0145031 -0.00187984 -6.62503 -3.3992 -11.8497 0.0025 
36 1 -0.0265659 -0.0117295 0.00250826 0 0 0 0.0536691 -0.0636373 0.00946365 0.00703466 -0.00141369 -0.0103863 13.8529 10.2458 -7.54575 0.0025 
331 1 -0.0219515 -0.0137621 0.00248595 0 0 0 0.028275 -0.0185053 0.00901766 -0.00898546 0.0160712 0.00816627 6.6319 8.02625 9.99977 0.0025 
326 1 -0.0168073 -0.0139823 0.00253136 0 0 0 -0.101936 -0.0137593 -0.0199058 0 0 -0.00160516 -9.19675 12.6198 -15.052 0.0025 
158 1 -0.0109912 -0.0141631 0.00248298 0 0 0 0.0377402 -0.0987087 -0.0133727 0.00270803 -0.00526249 0.00238126 8.14857 4.50284 -1.0097 0.0025 
226 1 -0.00357078 -0.0122405 0.00247271 0 0 0 -0.00971186 0.0268135 0.00130871 -0.0102047 -0.0151919 0.0114237 -5.65877 -2.04521 -13.4822 0.0025 
22 1 0.00143836 -0.0126854 0.00259758 0 0 0 0.00971451 -0.0975018 0.033332 0 0 -0.00160516 12.7872 5.61164 -7.40228 0.0025 
7 1 0.0100656 -0.0141736 0.00248329 0 0 0 -0.0364895 0.0563611 -0.0613481 0.000567796 -0.000499388 0.0135181 -0.500523 10.5037 -4.77646 0.0025 
142 1 0.018972 -0.0138938 0.00250643 0 0 0 -0.0140179 -0.0673679 -0.0100285 -0.0137568 0.00243996 -0.00628233 3.66382 0.166216 -15.069 0.0025 
313 1 0.0358509 -0.0129317 0.00249088 0 0 0 -0.0537148 0.0631102 0.0752579 -0.0158446 -0.00538216 -0.0169767 -0.452858 -8.57146 5.54164 0.0025 
238 1 -0.0418985 -0.00727099 0.00248562 0 0 0 0.00660756 -0.0225749 0.0229197 -0.00265252 0.00494138 0.00966497 -1.62694 0.814092 -12.4599 0.0025 
949 1 -0.0354688 -0.00784546 0.00247401 0 0 0 0.00233881 0.0249571 -0.0311394 -0.00231313 -0.0100432 0.00656573 7.27485 8.32674 -9.39898 0.0025 
367 1 -0.0297106 -0.00764245 0.00249806 0 0 0 0.0542653 -0.102742 0.021316 0.0145915 -0.00366395 -0.0210274 -1.17749 5.40099 -4.0269 0.0025 
49 1 -0.0237962 -0.00752713 0.0024821 0 0 0 -0.0205296 -0.0618963 0.0313466 -0.0153077 0.00447991 0.0115862 -2.93618 2.91437 5.7692 0.0025 
252 1 -0.0192439 -0.00954433 0.00249695 0 0 0 -0.0443038 0.0561205 0.0369225 -0.00145969 -0.017217 -0.0182472 -15.3389 -3.52258 19.9985 0.0025 
117 1 -0.0139185 -0.00953507 0.00247478 0 0 0 0.174692 -0.0196517 0.0689461 0.021247 0.000276234 -0.0162393 -6.46092 16.3463 -24.3335 0.0025 
190 1 -0.00839866 -0.00936837 0.00255586 0 0 0 -0.0317376 0.00985059 0.0491697 0 0 -0.00160516 -3.35273 -8.32455 -7.16859 0.0025 
347 1 0.00199237 -0.0077088 0.00246485 0 0 0 0.0788451 -0.073074 -0.0054254 -0.00152262 0.00156453 0.0420578 -2.21836 0.954157 -4.50932 0.0025 
240 1 0.00688608 -0.00883229 0.00261337 0 0 0 0.0159132 0.0069066 -0.0220079 -0.00159842 -0.00340008 -0.0036136 -1.10083 -10.4421 10.0939 0.0025 
24 1 0.0119345 -0.00842322 0.00250949 0 0 0 -0.016967 -0.00655828 0.0142851 -0.00511047 0.010499 -0.0096428 2.36807 -2.44394 -13.3791 0.0025 
233 1 0.0170662 -0.00825436 0.0025278 0 0 0 -0.0629006 -0.0210699 0.0685045 -0.0354656 0.0100892 -0.0099495 15.7813 7.15276 4.42063 0.0025 
338 1 0.0217885 -0.00975945 0.00253798 0 0 0 -0.0157579 0.0428142 -0.145026 0.0415508 -0.0198312 -0.00337152 12.7592 13.3947 -4.61157 0.0025 
337 1 0.0310775 -0.010036 0.00258885 0 0 0 0.139582 0.0337569 -0.0170603 0 0 -0.00160516 -12.1553 1.10426 0.865714 0.0025 
237 1 0.0380818 -0.00776697 0.00248372 0 0 0 -0.014347 -0.0188537 -0.0136027 0.00048583 0.000497981 0.0123091 -3.83121 5.36157 -11.303 0.0025 
426 1 0.0422905 -0.0105614 0.00247788 0 0 0 -0.0358816 -0.0286706 0.0597198 -0.0126096 0.019051 0.0181487 7.23654 -2.3158 4.12819 0.0025 
362 1 0.0467615 -0.00813754 0.0024776 0 0 0 -0.0117164 -0.00674275 -0.0280282 -0.000314355 -0.00757098 0.00651558 -1.1253 -3.68864 -4.57322 0.0025 
292 1 -0.0470411 -0.00648938 0.00248726 0 0 0 -0.00493576 0.00762779 0.0105582 0.000149126 -0.00044407 0.00776365 0.571455 -0.760297 12.677 0.0025 
328 1 -0.0170819 -0.00505549 0.0024823 0 0 0 0.00140999 0.0474146 -0.00765017 0.00197099 0.0079955 0.0053554 -14.0863 3.82014 -2.64827 0.0025 
61 1 -0.00338699 -0.00633315 0.00258102 0 0 0 -0.0372375 0.0122358 -0.0373999 0.000295212 4.38359e-05 -0.00199069 1.07003 -0.175459 2.23305 0.0025 
202 1 0.00754339 -0.00388661 0.00281862 0 0 0 -0.0207088 0.000165153 -0.0521931 0.000461789 0.00255607 -0.00154525 -20.8241 13.7638 -22.362 0.0025 
1046 1 0.0286591 -0.00382594 0.00246957 0 0 0 0.0647789 -0.000187826 -0.00467081 0.00479504 -0.00668609 0.023018 15.4708 -6.46647 2.23467 0.0025 
92 1 0.0334744 -0.00564242 0.00253508 0 0 0 -0.0203107 0.0853909 0.01137 2.29209e-05 -1.84242e-05 -0.0016636 -7.66343 2.60683 -20.1334 0.0025 
425 1 0.0410413 -0.00366966 0.00247753 0 0 0 0.012399 -0.00637199 -0.010152 0.00108646 0.000278034 0.0208243 1.49911 9.03871 0.914317 0.0025 
1140 1 -0.0474916 -0.00100477 0.002509 0 0 0 -0.0576014 -0.0156001 -0.044408 -0.00703105 0.00196765 -0.00189274 3.52979 -0.719755 4.99694 0.0025 
945 1 -0.0426856 -0.00232993 0.00249135 0 0 0 -0.0733266 0.0559859 -0.0100285 -0.00363871 -0.00326966 0.00214848 3.942 0.116156 4.23215 0.0025 
1341 1 -0.0377129 -0.00259807 0.00251005 0 0 0 0.0275186 -0.0810073 -0.0395028 0.0123506 -4.87531e-05 -0.00153545 23.3098 8.523 -10.6712 0.0025 
98 1 -0.0327341 -0.00341085 0.00251654 0 0 0 0.010652 0.0157325 -0.00107804 0.00517479 -0.0029203 -0.0114805 1.40976 7.00661 10.6419 0.0025 
342 1 -0.0267948 -0.00346291 0.00253075 0 0 0 0.0290134 0.00155499 0.022661 0.0100225 -0.00132986 -0.0196186 -4.58893 -1.13489 8.35868 0.0025 
1337 1 -0.0216595 -0.00301552 0.0024864 0 0 0 0.0305305 -0.00901171 -0.012208 0.000655934 0.00245983 0.00916544 8.57403 -1.98268 -0.655365 0.0025 
278 1 -0.0123215 -0.00329346 0.00250752 0 0 0 0.00698187 -0.0226203 0.0311047 -0.0189075 0.00953178 -0.0281385 -8.32811 -3.64448 16.4225 0.0025 
248 1 -0.00735888 -0.00308998 0.00247282 0 0 0 0.00156232 0.0289309 0.00128201 0.0283142 -0.00115536 0.0289369 13.3141 0.306227 -8.97525 0.0025 
250 1 -0.00208614 -0.000891349 0.00249076 0 0 0 0.0559135 -0.0134561 -0.0136639 0.0168676 -0.00479882 -0.0182884 -1.52792 6.11696 10.954 0.0025 
21 1 0.00288421 -0.00135439 0.00247124 0 0 0 -0.0852235 0.0187096 -0.0111124 -0.0219322 -0.0177588 -0.0140156 -7.14721 0.743285 5.94926 0.0025 
154 1 0.0124668 -0.00303063 0.0024981 0 0 0 -0.0134537 0.0575375 0.00277307 -0.0114895 0.00231135 -0.0128597 -2.72051 -2.95872 -0.955134 0.0025 
80 1 0.0174545 -0.00320871 0.00250429 0 0 0 -0.0256749 -0.013848 0.030039 -0.00831539 0.0105038 -0.0136741 10.2553 -8.1474 -7.95772 0.0025 
971 1 0.0222662 -0.00182554 0.00248925 0 0 0 -0.0454355 0.0398471 0.0804589 0.000255064 -0.000191591 0.00477495 -4.28052 -2.64646 -9.51688 0.0025 
368 1 0.0365359 -0.00149487 0.00249047 0 0 0 0.00375602 0.0141865 -0.0214624 0.0108009 -0.00523749 0.00289558 5.81881 7.00937 -8.59622 0.0025 
305 1 0.0468153 -0.00312189 0.00253554 0 0 0 0.0362052 0.00846997 0.0222827 0 0 -0.00160516 -1.688 13.1898 5.72332 0.0025 
73 1 -0.00469583 -0.0471436 0.00626446 0 0 0 -0.0198618 0.0351328 0.0398732 -0.0090587 0.000136035 -0.00297152 -2.54014 5.35247 -9.68645 0.0025 
411 1 -0.0188985 -0.0435083 0.00607209 0 0 0 0.0716501 -0.0180832 -0.0409254 0 0 -0.00160516 3.70113 -4.40634 4.333 0.0025 
352 1 -0.01184 -0.0459687 0.00585655 0 0 0 -0.0507947 0.0125581 -0.000592112 -0.000338802 -0.0015798 -4.84399e-05 -1.90392 0.340796 -7.09606 0.0025 
444 1 -0.00751065 -0.0429118 0.00615115 0 0 0 -0.0678914 0.00218204 0.0371552 -0.0178876 -0.00186769 -0.0407439 1.46224 14.6519 -5.6863 0.0025 
243 1 0.014682 -0.0451487 0.0069852 0 0 0 -0.0264903 -0.106669 0.0198821 0.00270596 0.00043911 -0.00202272 12.5025 -2.65249 3.33392 0.0025 
302 1 0.0192955 -0.0432315 0.00707712 0 0 0 0.018983 -0.0443304 0.00253748 0.000436927 0.000190467 -0.00157399 -9.10445 -14.3022 21.6039 0.0025 
82 1 -0.0243489 -0.0407833 0.00682917 0 0 0 -0.0700864 -0.00043077 -0.0162066 -0.029845 0.0137998 -0.0278574 -1.22552 3.52406 9.39153 0.0025 
8 1 -0.0142066 -0.0411031 0.00608178 0 0 0 0.0350497 0.00405279 0.0602317 -0.0286396 0.0109639 0.0264778 -7.27902 8.54406 2.37685 0.0025 
354 1 -0.00131243 -0.0420153 0.00668953 0 0 0 0.0221944 0.00896549 -0.107955 -0.0146198 0.0105915 -0.0221226 0.958939 1.62939 15.1871 0.0025 
377 1 0.00403674 -0.0424884 0.00678745 0 0 0 0.0121153 0.118929 -0.0540243 0.0184183 -0.00236197 -0.0295795 12.9841 -12.5088 5.05554 0.0025 
60 1 0.00932924 -0.040783 0.00633009 0 0 0 -0.0143217 -0.0246502 -0.0708052 -0.00947437 -0.0415426 -0.0400916 4.11883 3.76008 8.82542 0.0025 
102 1 -0.0285389 -0.0379374 0.00678401 0 0 0 0.0232961 0.0133605 -0.0511094 0.00484913 -0.00510558 0.00982086 -15.8351 -16.949 -5.80671 0.0025 
301 1 -0.00988276 -0.0381269 0.00643257 0 0 0 0.0963869 -0.0319777 -0.0654167 0.0134852 -0.00692804 -0.0202969 1.79921 7.43996 -12.8516 0.0025 
197 1 -0.00441466 -0.0380658 0.00673351 0 0 0 -0.0247792 -0.0806316 -0.0072408 -0.00261595 -0.000340722 -0.00154722 -7.05538 19.3934 -3.10127 0.0025 
70 1 0.000507421 -0.0372309 0.00678281 0 0 0 0.0115588 -0.00429935 0.0199769 0.000147151 -0.0163934 -0.0358422 7.68075 -9.08249 5.28046 0.0025 
388 1 0.0142004 -0.0390964 0.00619223 0 0 0 0.0309827 0.0143766 -0.00906288 -0.0193281 -0.0134993 -0.038192 -9.95463 -18.0353 -2.64381 0.0025 
332 1 0.0220585 -0.0380714 0.00526798 0 0 0 0.00702823 0.000254213 -0.0535456 -0.0164582 0.0095301 0.0124753 4.93059 -2.88111 7.004 0.0025 
186 1 0.0275655 -0.0384817 0.00685478 0 0 0 0.00935265 0.0164293 0.0111575 0.000913807 -0.00890308 -0.00210557 5.626 11.03 0.887337 0.0025 
348 1 -0.0248938 -0.0346079 0.00595611 0 0 0 0.00695695 -0.0459479 -0.0160665 0.00508198 -0.0368674 -0.0162963 0.863848 -12.6362 5.09115 0.0025 
16 1 -0.0183132 -0.0355249 0.00549769 0 0 0 -0.053293 -0.00136646 0.0240135 -0.0014365 0.000932436 -0.011617 -6.05722 -3.2864 -1.89353 0.0025 
378 1 -0.0119679 -0.0335369 0.00632331 0 0 0 0.00621595 -0.0426163 0.0293995 -0.0252197 0.000782466 -0.00455895 -1.54804 10.1148 10.6069 0.0025 
667 1 -0.00238856 -0.032252 0.00656413 0 0 0 -0.0217858 -0.0108252 -0.0662448 0.00894148 -0.00371586 -0.00336606 0.215783 -5.77198 9.53491 0.0025 
170 1 0.0075264 -0.0338038 0.00495958 0 0 0 0.00892615 0.00858588 -0.0781867 -0.0298333 -0.0133773 0.0279039 4.26181 15.9297 0.964321 0.0025 
357 1 0.0123078 -0.0340583 0.00652257 0 0 0 -0.0225574 0.05948 -0.0211484 -0.0098961 0.000267965 0.0138162 -4.9675 3.10296 -3.96862 0.0025 
589 1 0.0177223 -0.0356322 0.00656781 0 0 0 -0.0211429 -0.0402649 0.0238086 0.0321192 0.0343738 0.00116053 2.48776 -3.50871 7.65924 0.0025 
262 1 0.0219451 -0.0323009 0.00680253 0 0 0 -0.0207519 0.029933 -0.0803222 -0.000327296 -0.0108339 -0.0170879 15.861 1.4769 7.81882 0.0025 
194 1 0.0269831 -0.0335309 0.00689536 0 0 0 -0.00863603 -0.0380399 -0.071449 0.000215374 0.0100564 0.00185813 -1.1527 -7.20281 -2.87058 0.0025 
11 1 -0.0339079 -0.0299989 0.00673156 0 0 0 0.014184 0.1433 0.0216726 0.00992361 -0.0146401 0.0141278 4.66888 1.65928 -0.884594 0.0025 
314 1 -0.0288429 -0.0313251 0.0061123 0 0 0 0.00619019 -0.0146523 -0.0044192 0.00536487 -0.0050498 0.00677191 4.17503 -11.3054 2.13491 0.0025 
152 1 -0.0156483 -0.0302096 0.00687198 0 0 0 -0.0485603 -0.0445888 0.0493114 0.0452982 -0.0394906 -0.0304646 9.10595 -6.52278 3.39616 0.0025 
160 1 0.00310824 -0.0319518 0.00652829 0 0 0 -0.0168213 -0.11865 0.00307792 -0.0210625 -0.0369102 -0.000493435 -6.21196 1.26946 0.0748885 0.0025 
441 1 0.00885517 -0.0292506 0.00663622 0 0 0 0.0327783 -0.0272041 0.0046163 0 0 -0.00160516 -7.11375 -16.6527 -14.8448 0.0025 
320 1 0.0161099 -0.0308106 0.00656463 0 0 0 -0.028122 -0.0269456 -0.049153 -0.00516166 -0.00303834 0.00685217 3.93017 -1.76945 -4.73731 0.0025 
508 1 0.0258724 -0.0286359 0.00682248 0 0 0 0.0568341 -0.0649396 0.0493146 0.00309019 0.00339431 0.0100945 15.8145 -0.831012 12.1358 0.0025 
215 1 0.0311867 -0.0300961 0.00691221 0 0 0 0.031965 -0.0364612 -0.0113851 -0.00375116 -0.0076624 0.00344692 1.63525 1.85022 0.473023 0.0025 
223 1 0.0361942 -0.0308122 0.00633021 0 0 0 0.0235767 -0.00053798 -0.0814802 -0.0312018 0.0255976 1.87084e-05 24.9729 0.810796 6.85811 0.0025 
260 1 -0.0384074 -0.027882 0.00670164 0 0 0 0.0782205 0.00527651 -0.0365927 -0.0322502 0.0148164 0.0701738 -3.5016 6.71314 16.305 0.0025 
294 1 -0.0303771 -0.0263464 0.00654485 0 0 0 0.0799485 0.0561698 -0.0565009 0.00197034 0.00558549 0.00749061 2.49674 6.54219 3.05266 0.0025 
359 1 -0.0248426 -0.0283165 0.00654585 0 0 0 -0.0195712 -0.0171973 -0.126965 0.0140466 0.0246112 0.0152478 -1.85037 -8.43153 1.61497 0.0025 
288 1 -0.0164684 -0.0253117 0.00654 0 0 0 0.075197 0.00696645 -0.0202134 -0.000371464 0.0236826 0.0127928 -6.85087 2.54523 1.06909 0.0025 
350 1 -0.00528408 -0.0279128 0.0069507 0 0 0 0.0776593 -0.0352411 -0.077169 0.0306742 -0.0761306 -0.079215 -9.7855 5.43253 4.20425 0.0025 
315 1 -0.000197669 -0.0277828 0.00684167 0 0 0 -0.0966346 -0.143318 0.0800936 0.004586 0.013405 0.00468389 31.0789 -2.87765 12.7846 0.0025 
323 1 0.0199657 -0.0274063 0.00718349 0 0 0 -0.013522 -0.112706 0.0546334 0.00530889 -0.0188354 -0.016262 -14.8939 -2.10246 -15.5256 0.0025 
435 1 0.0311207 -0.0250325 0.005772 0 0 0 -0.0263509 -0.00683762 0.032255 -0.0272764 -0.0260771 -0.0179967 -14.2817 -3.98502 11.1673 0.0025 
26 1 0.0397029 -0.0259337 0.00674433 0 0 0 0.0145303 0.0755653 0.0686094 0.00576555 -0.0111364 0.0142637 11.9768 -3.59618 6.50098 0.0025 
372 1 -0.0398411 -0.0224636 0.00658079 0 0 0 0.0833002 0.0736051 0.0430484 0.000292544 -0.0103317 -0.00392438 2.41657 4.32717 -6.28806 0.0025 
192 1 -0.0262428 -0.0235284 0.00665239 0 0 0 0.000624048 -0.0115417 0.0579717 -0.0531113 0.0127278 -0.00447349 9.45171 0.137624 6.73313 0.0025 
163 1 -0.021419 -0.0246338 0.00666529 0 0 0 0.0181523 -0.0410699 -0.0254533 0.0559736 -0.0241627 0.00202643 -13.6663 0.211685 2.36943 0.0025 
145 1 -0.0128373 -0.0218584 0.00667989 0 0 0 0.0964573 0.0670796 0.0567324 0.000708819 -0.0002706 -0.00169417 7.31233 -22.5718 8.7102 0.0025 
165 1 -0.00784817 -0.0221638 0.00677834 0 0 0 0.0524642 -0.0840051 0.0370946 0.000183169 -2.67131e-06 -0.00159822 7.31052 1.02177 2.29597 0.0025 
235 1 0.0012009 -0.0228684 0.00709545 0 0 0 0.0801895 0.0249845 0.056979 -0.00756489 -0.044325 0.0109025 9.6587 -7.03434 6.2088 0.0025 
57 1 0.00597406 -0.024288 0.00624732 0 0 0 -0.0591878 0.0461233 -0.0112389 0.00297235 -0.00824259 0.00744922 -6.34501 -3.58231 -7.44588 0.0025 
219 1 0.0106654 -0.0222791 0.00651139 0 0 0 -0.0155226 0.064728 0.0246947 0.0106331 -0.00968248 -0.0516369 -13.7543 19.461 -14.2856 0.0025 
269 1 0.0213992 -0.0223572 0.00606876 0 0 0 0.0807929 0.0131662 0.0305245 -0.00121463 -0.0009055 0.000507318 -15.0286 8.25843 6.59083 0.0025 
391 1 0.0263997 -0.0231682 0.00564504 0 0 0 -0.0205511 0.000581169 0.08677 0.00472085 -0.00951184 -0.0115844 -14.8635 8.91326 -15.7721 0.0025 
282 1 0.0422634 -0.0216161 0.00691223 0 0 0 0.0240487 -0.065624 -0.00365296 0 0 -0.00160516 0.106847 13.1062 -18.3725 0.0025 
439 1 -0.0434368 -0.0189113 0.00676814 0 0 0 0.0702459 -0.000638823 0.0161516 -0.00101173 -0.000343399 -0.00248896 -18.3278 9.76267 -2.31534 0.0025 
69 1 -0.036802 -0.0183742 0.00666772 0 0 0 -0.010098 -0.0790281 -0.141497 -0.0017169 -0.00541439 -0.00793803 5.45549 -5.31928 1.26501 0.0025 
382 1 -0.0327978 -0.0210912 0.00460236 0 0 0 0.024658 0.0117531 -0.00392887 -0.0182757 0.00599696 0.00479483 1.12387 0.0669022 -4.51304 0.0025 
371 1 -0.0279584 -0.0188428 0.00683031 0 0 0 0.0093597 -0.0292601 0.0316564 0.00850519 -0.00327578 -0.00184391 -1.44317 -1.79171 8.13273 0.0025 
120 1 -0.0225616 -0.0197899 0.00651203 0 0 0 0.0532749 -0.00410096 -0.00657049 -0.00812632 0.0140094 -0.0031784 0.468993 -13.1297 -18.1065 0.0025 
201 1 -0.0176311 -0.020471 0.00688094 0 0 0 -0.079827 0.0186413 -0.13147 0.00322092 0.00376048 -0.00048726 -6.46577 2.70347 10.119 0.0025 
41 1 -0.00281189 -0.019657 0.00633053 0 0 0 0.0279286 0.0560883 -0.00789936 0.0192501 -0.0369141 0.000454244 -10.3773 0.967405 16.431 0.0025 
353 1 0.0020325 -0.0181863 0.00570689 0 0 0 0.0455164 0.0552852 -0.0567088 0.0145 0.0362121 -0.0113403 -4.2339 12.7647 1.97842 0.0025 