ITEM: TIMESTEP
4000
ITEM: NUMBER OF ATOMS
1800
ITEM: BOX BOUNDS mm mm mm
-0.05 0.05
-0.05 0.05
0 0.15
ITEM: ATOMS id type x y z ix iy iz vx vy vz fx fy fz omegax omegay omegaz radius 
85 1 -0.0102451 -0.0429317 0.00261946 0 0 0 0.00667044 -0.231097 0.439513 0 0 -0.00160516 50.355 22.3616 41.281 0.0025 
150 1 -0.00409227 -0.0408761 0.00302914 0 0 0 0.380892 -0.393375 0.253915 0 0 -0.00160516 39.8035 -35.1263 -10.9819 0.0025 
101 1 0.0100128 -0.041119 0.00392527 0 0 0 -0.34153 -0.186488 0.120145 0 0 -0.00160516 48.6438 77.5882 -39.0923 0.0025 
257 1 -0.000476592 -0.0360629 0.0045069 0 0 0 0.0962404 -0.0713158 0.441994 0 0 -0.00160516 -2.81881 -50.5826 27.7236 0.0025 
438 1 -0.0127066 -0.0332591 0.00252869 0 0 0 -0.33318 -0.0201006 0.375349 -0.118843 0.144131 -0.023393 46.244 -52.979 15.3249 0.0025 
18 1 -0.00987174 -0.0372286 0.00280026 0 0 0 -0.523317 0.124739 0.366939 0.106906 -0.151184 0.0161682 -24.3012 -47.0002 -63.8229 0.0025 
354 1 -0.00826948 -0.0311408 0.00328411 0 0 0 -0.160832 -0.0918635 0.267111 0.0158494 0.00798761 0.00195092 29.82 -13.9257 5.53503 0.0025 
141 1 0.00115295 -0.0308379 0.00287158 0 0 0 0.178423 -0.000696208 0.51571 0 0 -0.00160516 0.667552 76.1837 38.2818 0.0025 
294 1 -0.0294293 -0.027416 0.00326933 0 0 0 -0.415058 -0.187907 0.255983 0 0 -0.00160516 -20.4819 -4.98496 3.13945 0.0025 
307 1 0.0146243 -0.0280635 0.00570382 0 0 0 0.123509 0.0435902 0.473864 0 0 -0.00160516 9.07208 -21.7483 -17.5769 0.0025 
309 1 0.026844 -0.0307093 0.00233398 0 0 0 -0.0963711 -0.662269 -0.339307 0.000467078 0.0227766 0.454022 12.6026 -34.4797 17.3397 0.0025 
421 1 -0.0163358 -0.0238511 0.00382892 0 0 0 0.0302399 0.0735658 0.146756 -0.00279692 0.00890855 -0.00910609 -20.7946 -20.396 13.4579 0.0025 
225 1 -0.00214285 -0.0223852 0.00295317 0 0 0 -0.128297 -0.339635 0.203481 0 0 -0.00160516 60.5837 -28.6701 -25.4936 0.0025 
365 1 -0.0254226 -0.0220697 0.0035068 0 0 0 -0.545828 -0.02622 -0.0852252 0.00300924 -0.00273599 -0.000678832 -1.28481 7.99487 16.0992 0.0025 
380 1 -0.0171921 -0.018414 0.00457064 0 0 0 -0.190285 0.01719 0.109693 0 0 -0.00160516 -49.4785 -31.1632 -23.8623 0.0025 
32 1 0.00645251 -0.019904 0.00328395 0 0 0 0.133676 -0.105957 -0.130255 0.00812456 0.0144946 -0.020038 40.0579 59.5535 -52.5265 0.0025 
346 1 0.0136605 -0.0206957 0.00245595 0 0 0 0.166845 -0.127224 -0.614225 -0.00166812 0.00317948 0.0702049 -13.5271 33.2455 -37.6671 0.0025 
104 1 0.0376782 -0.0184345 0.00386556 0 0 0 0.191771 -0.0686651 0.0135987 0 0 -0.00160516 23.2609 13.1683 -23.9305 0.0025 
405 1 0.00217748 -0.0170699 0.00266413 0 0 0 -0.0191184 0.393698 0.294297 0 0 -0.00160516 -66.6419 40.9419 -7.47039 0.0025 
142 1 0.0180224 -0.0157022 0.00273473 0 0 0 0.0259969 0.197482 -0.298495 0.0867274 -0.000307612 -0.0925825 -32.2954 44.224 -7.58552 0.0025 
292 1 -0.0457609 -0.00996965 0.00259406 0 0 0 -0.499375 0.335592 -0.00595037 0 0 -0.00160516 -10.6747 -4.52783 42.8357 0.0025 
336 1 -0.0222728 -0.0128174 0.00269174 0 0 0 -0.223572 -0.20783 0.0561945 0 0 -0.00160516 -55.4637 -27.8554 9.38352 0.0025 
331 1 -0.0171086 -0.00933567 0.0026309 0 0 0 -0.219645 0.302562 -0.149871 0 0 -0.00160516 -11.1089 4.60151 25.5035 0.0025 
7 1 0.00980422 -0.0142025 0.0038473 0 0 0 -0.313264 -0.516134 0.242105 0 0 -0.00160516 -13.2644 32.5871 -8.24372 0.0025 
2 1 0.0245439 -0.0130919 0.00291467 0 0 0 0.237135 0.0960865 -0.336482 0.00233073 0.00198456 -0.00714997 -0.910849 -65.3058 -15.8541 0.0025 
238 1 -0.0341162 -0.00762661 0.00252864 0 0 0 0.291248 -0.185486 0.412642 0 0 -0.00160516 25.6146 19.8286 -4.07979 0.0025 
222 1 -0.000890757 -0.00661995 0.00455822 0 0 0 0.642498 0.533047 0.169578 0 0 -0.00160516 -15.6809 -27.7993 21.706 0.0025 
347 1 0.00364412 -0.0109809 0.00372064 0 0 0 -0.0917809 0.368421 -0.0244621 0 0 -0.00160516 55.9885 28.0608 -17.4796 0.0025 
202 1 0.00736244 -0.00589593 0.00299312 0 0 0 -0.311795 -0.0863123 0.0945968 0 0 -0.00160516 44.2437 -2.933 -23.0186 0.0025 
496 1 -0.0267997 -0.00836357 0.0696972 0 0 0 0 0 -0.892351 0 0 -0.00160516 0 0 0 0.0025 
518 1 0.0373895 -0.0101656 0.0669693 0 0 0 0 0 -0.892351 0 0 -0.00160516 0 0 0 0.0025 
849 1 -0.0209301 -0.00340511 0.064346 0 0 0 0 0 -0.892351 0 0 -0.00160516 0 0 0 0.0025 
255 1 -0.00224747 -0.0461049 0.00353844 0 0 0 0.105741 -0.0904998 -0.076747 0 0 -0.00160516 -16.0204 -13.5124 -24.2752 0.0025 
189 1 0.00424037 -0.0448919 0.00744788 0 0 0 0.0546014 0.281751 0.158324 0 0 -0.00160516 42.3016 11.8539 -8.95725 0.0025 
103 1 -0.0147471 -0.0382709 0.00314756 0 0 0 0.043201 0.631995 -0.190102 -0.00391144 -0.000934293 -0.00114675 -53.184 16.8841 23.2176 0.0025 
241 1 0.00492962 -0.0430912 0.00252218 0 0 0 -0.0259858 -0.274334 0.339401 0 0 -0.00160516 88.8748 46.707 26.2221 0.0025 
389 1 0.0237568 -0.0360199 0.00370484 0 0 0 -0.299183 0.161476 -0.975595 0 0 -0.00160516 85.1835 97.5664 -18.5833 0.0025 
409 1 0.0191778 -0.0432778 0.00442147 0 0 0 -0.318268 0.827424 -0.0282045 0 0 -0.00160516 -29.3387 52.2043 -46.3886 0.0025 
37 1 -0.0199367 -0.0373807 0.00393251 0 0 0 0.0556945 -0.353082 -0.41816 0 0 -0.00160516 -0.078715 -55.1269 -4.29273 0.0025 
234 1 0.0114068 -0.0319218 0.00440629 0 0 0 -0.233203 -0.68003 0.427404 0 0 -0.00160516 54.3677 102.422 34.9212 0.0025 
95 1 -0.0285612 -0.0324364 0.00359904 0 0 0 -0.575188 -0.143291 -0.29697 0 0 -0.00160516 -61.0302 111.811 15.3841 0.0025 
220 1 0.0189761 -0.0339536 0.00347917 0 0 0 0.0480219 -0.442605 -0.448345 0 0 -0.00160516 -32.6237 -3.01603 15.241 0.0025 
369 1 0.0339054 -0.0322019 0.00700984 0 0 0 -0.437591 0.467755 -0.0321133 0 0 -0.00160516 -25.8126 16.534 -10.7567 0.0025 
434 1 -0.0205832 -0.0290472 0.00298824 0 0 0 -0.126341 -0.235493 0.366112 0 0 -0.00160516 85.4946 -25.8255 55.5622 0.0025 
378 1 -0.0137148 -0.027928 0.00497134 0 0 0 -0.112736 -0.196732 -0.116517 0.00706612 -0.0102844 0.00187073 -3.8194 46.0039 -38.471 0.0025 
218 1 -0.00439488 -0.027844 0.00311201 0 0 0 0.109241 0.23217 0.39208 0 0 -0.00160516 18.4105 -14.014 24.593 0.0025 
70 1 -0.000857925 -0.0277063 0.00675359 0 0 0 0.284463 -0.248065 0.0599928 0 0 -0.00160516 17.6564 103.416 -20.1679 0.0025 
126 1 0.00581318 -0.0276058 0.00253055 0 0 0 0.426041 -0.298444 -0.275196 0 0 -0.00160516 -25.7344 21.5904 35.0171 0.0025 
66 1 0.0222016 -0.0275976 0.00244428 0 0 0 -0.0698033 -0.232888 -0.33487 0.00431063 0.00176462 0.0915516 44.5767 92.8882 13.7429 0.0025 
132 1 0.0323772 -0.0272692 0.00644383 0 0 0 -0.117034 0.329577 0.177372 0 0 -0.00160516 -67.7937 -18.0943 37.9192 0.0025 
433 1 -0.0103156 -0.0229882 0.00463923 0 0 0 -0.184716 0.0650013 0.0511536 0 0 -0.00160516 18.3148 9.9933 -51.7738 0.0025 
87 1 0.00500961 -0.0227228 0.00711941 0 0 0 0.468684 0.238174 -0.457112 -0.00812456 -0.0144946 0.0168276 -18.3349 -8.98511 24.6136 0.0025 
30 1 0.010813 -0.0251644 0.0038858 0 0 0 -0.194119 -0.00671663 0.380484 0 0 -0.00160516 82.5428 115.005 -10.7286 0.0025 
134 1 0.0183007 -0.0244307 0.00253041 0 0 0 0.0976022 -0.0542802 0.0168359 -0.0602218 -0.229875 -0.12366 5.76828 10.1458 54.7744 0.0025 
205 1 0.0360744 -0.0255778 0.00247028 0 0 0 -0.0268846 -0.092878 -0.246214 -0.0578908 -0.00543334 0.00230466 10.5055 9.30312 -4.34606 0.0025 
231 1 -0.0430394 -0.0201876 0.00678685 0 0 0 -0.135351 -0.277705 -0.0802391 -0.0516579 -0.0410901 -0.0168687 -28.4419 41.2694 -16.5148 0.0025 
102 1 -0.0381283 -0.0266041 0.00836773 0 0 0 -0.00859462 -0.684125 0.1781 0 0 -0.00160516 -6.82349 4.35469 27.3958 0.0025 
10 1 -0.03773 -0.0208839 0.00343715 0 0 0 -0.268204 -0.408931 -0.196876 0 0 -0.00160516 -35.165 -2.80042 11.9121 0.0025 
40 1 -0.00864899 -0.0154481 0.0031292 0 0 0 0.169709 -0.0133752 0.393126 0.0267667 -0.0649486 -0.120981 -26.5258 34.7794 -12.7896 0.0025 
448 1 0.0249498 -0.0226047 0.00245139 0 0 0 0.380441 -0.547571 0.12912 -0.00231823 0.00252496 0.0669503 98.3385 40.8808 -44.541 0.0025 
386 1 0.0327877 -0.0210984 0.00389176 0 0 0 0.412851 0.0773702 -0.109219 0 0 -0.00160516 6.60061 8.04768 -17.1612 0.0025 
15 1 -0.0224411 -0.01663 0.00660195 0 0 0 -0.62592 -0.444446 -0.278893 0 0 -0.00160516 -61.4922 91.19 -17.8144 0.0025 
321 1 -0.00364969 -0.017464 0.00300431 0 0 0 0.0544508 -0.152892 -0.452686 0 0 -0.00160516 34.4466 32.2731 -29.047 0.0025 
383 1 0.00626752 -0.0160403 0.00749032 0 0 0 0.468565 -0.0601258 0.0651236 0 0 -0.00160516 -45.5158 -30.4122 -28.9254 0.0025 
140 1 0.0224856 -0.0146599 0.00717018 0 0 0 -0.565697 -0.17226 0.0711225 -0.00233073 -0.00198456 0.00393965 24.9237 98.1639 -19.7276 0.0025 
74 1 -0.029895 -0.0130357 0.00380501 0 0 0 0.126066 -0.390489 0.124597 -0.21497 -0.0446148 -0.270043 41.3319 -45.6594 12.7232 0.0025 
22 1 -0.00379794 -0.0120777 0.00344418 0 0 0 0.191855 0.283217 -0.29075 0 0 -0.00160516 34.8103 49.7602 22.9469 0.0025 
80 1 0.0162055 -0.0108367 0.00281123 0 0 0 0.180442 0.208165 -0.33638 0 0 -0.00160516 -36.3998 -18.111 5.19812 0.0025 
237 1 0.0308707 -0.0108952 0.00307388 0 0 0 0.188664 -0.142525 -0.502507 0 0 -0.00160516 11.1809 40.4036 -7.76114 0.0025 
122 1 0.0431971 -0.0105035 0.00265818 0 0 0 -0.554427 0.319261 -0.210454 0 0 -0.00160516 -27.7852 -19.6266 -30.2507 0.0025 
105 1 -0.0451357 -0.00861715 0.00843036 0 0 0 -0.0171471 0.318339 0.151829 0 0 -0.00160516 -15.1499 -59.4744 2.05686 0.0025 
449 1 -0.0245887 -0.00717082 0.00710803 0 0 0 0.0603692 0.017959 0.0609604 -0.0266903 -0.0493278 -0.020655 -29.2865 -69.9603 -44.9789 0.0025 
158 1 -0.0111432 -0.0110983 0.00289351 0 0 0 -0.129879 0.287632 0.744786 -0.018781 0.02618 -0.0687185 45.117 25.4523 13.7226 0.0025 
425 1 0.0373897 -0.00882843 0.00713299 0 0 0 0.371841 -0.265058 -0.0928935 0.0483487 -0.0501654 -0.0714915 -4.96269 69.054 -10.1139 0.0025 
136 1 -0.0394068 -0.00851386 0.00237231 0 0 0 -0.140565 -0.274733 -0.031684 0.00742653 0.0131745 0.300865 40.0313 -16.6975 -11.0993 0.0025 
261 1 -0.0238746 -0.000197099 0.00289192 0 0 0 0.136705 0.793401 -0.232753 -0.269326 -0.0452235 0.0317159 29.7678 -27.6236 -36.5943 0.0025 
342 1 -0.0215795 -0.00456753 0.00285572 0 0 0 -0.315163 0.151312 0.104882 -0.0510679 -0.0361452 -0.0917302 -57.2656 -41.0909 -20.2098 0.0025 
117 1 -0.00795553 -0.00596125 0.00363139 0 0 0 0.332602 -0.282415 -0.510511 0 0 -0.00160516 -63.9498 28.6199 -11.889 0.0025 
61 1 -0.00421142 -0.00226254 0.00342941 0 0 0 -0.0981967 0.101453 0.314093 0 0 -0.00160516 -47.8176 -40.634 24.096 0.0025 
24 1 0.0118811 -0.00773182 0.00458192 0 0 0 0.109671 0.0693567 -0.0158143 -0.000880352 0.0011849 -0.00314468 10.5638 26.8544 51.1078 0.0025 
408 1 0.0192234 -0.00478858 0.0033174 0 0 0 0.127866 0.18836 0.268213 0 0 -0.00160516 -16.6385 68.0483 6.21622 0.0025 
92 1 0.0249652 -0.00663756 0.00310272 0 0 0 -0.233555 -0.123846 -0.284383 0 0 -0.00160516 27.4169 -24.51 -20.5726 0.0025 
393 1 0.0325073 -0.00424473 0.00504659 0 0 0 0.402577 0.267886 0.322987 -0.0206291 -0.0109181 0.00232221 2.99431 -24.8492 -1.35523 0.0025 
246 1 -0.0371357 -0.00389391 0.00598297 0 0 0 -0.310929 -0.26326 0.316667 0 0 -0.00160516 26.723 44.7614 13.0828 0.0025 
901 1 -0.0152547 -0.000727747 0.00591281 0 0 0 0.3566 -0.0947907 0.132354 0 0 -0.00160516 2.37244 -48.0469 18.2462 0.0025 
147 1 0.00280768 -0.00308237 0.00257309 0 0 0 0.152902 -0.109641 -0.438698 0 0 -0.00160516 -2.80245 -112.658 20.2818 0.0025 
552 1 -0.00642935 -0.00651349 0.0684419 0 0 0 0 0 -0.892351 0 0 -0.00160516 0 0 0 0.0025 
305 1 0.0368824 -0.00210914 0.00403446 0 0 0 0.223947 -0.195676 -0.0977204 0.0206291 0.0109181 -0.00553253 -45.7861 23.771 23.7389 0.0025 
413 1 -0.0246508 -0.0385515 0.00715784 0 0 0 -0.546779 -0.253947 -0.442097 0 0 -0.00160516 9.04852 -34.4324 -23.9808 0.0025 
279 1 0.0142445 -0.0451356 0.00583413 0 0 0 -0.0484364 0.650038 -0.342488 0 0 -0.00160516 -64.6597 -31.7494 -12.6266 0.0025 
416 1 0.000464724 -0.0391124 0.00970621 0 0 0 0.300085 -0.555395 0.0637504 0 0 -0.00160516 1.3676 28.282 15.6677 0.0025 
186 1 0.0239738 -0.0404406 0.011462 0 0 0 0.094435 -0.343379 -0.294115 0.0779647 -0.142766 -0.0694919 -34.8521 33.3019 21.2024 0.0025 
244 1 -0.0313243 -0.034301 0.00840756 0 0 0 0.0982315 0.146508 0.00982026 -0.00765117 -0.00460608 -0.0220901 -20.882 41.2341 -23.2645 0.0025 
444 1 -0.00968051 -0.0339239 0.00909417 0 0 0 -0.349047 -0.127512 0.214349 0 0 -0.00160516 -93.8144 -8.17411 -31.247 0.0025 
28 1 -0.00609888 -0.0364823 0.00627218 0 0 0 0.371096 -0.722933 0.217572 0 0 -0.00160516 16.0663 -58.6483 -1.78265 0.0025 
29 1 0.0109301 -0.0404669 0.00996018 0 0 0 -0.639357 -0.635919 -0.389494 0 0 -0.00160516 54.3331 23.9122 38.3479 0.0025 
60 1 0.00201564 -0.0316451 0.00808923 0 0 0 0.110168 -0.388311 -0.110441 0.0499241 0.0552749 -0.0860937 -31.6966 -2.12367 -8.68933 0.0025 
280 1 0.0293786 -0.0341925 0.00863065 0 0 0 -0.0421095 -0.564704 0.136005 0.267117 0.0569719 -0.0849149 -4.12225 52.4915 -2.76732 0.0025 
78 1 -0.0347324 -0.0319663 0.0046156 0 0 0 -0.288298 -0.507776 -0.628501 0 0 -0.00160516 0.382534 -21.7746 -4.46788 0.0025 
291 1 -0.00380819 -0.0281853 0.0112866 0 0 0 0.409198 -0.091058 -0.0317645 0 0 -0.00160516 -28.6117 50.1585 -41.4869 0.0025 
373 1 0.00869023 -0.0289267 0.00738602 0 0 0 0.102346 -0.637314 -0.51923 0 0 -0.00160516 -13.5947 55.6086 -49.2672 0.0025 
179 1 0.0170392 -0.0262279 0.0104218 0 0 0 -0.171327 0.145419 0.40657 0 0 -0.00160516 4.28625 -52.791 45.6774 0.0025 
11 1 -0.0277089 -0.0231628 0.00820679 0 0 0 -0.106331 0.0429572 -0.0133094 0 0 -0.00160516 -75.4192 61.3745 -56.548 0.0025 
195 1 -0.0200035 -0.0229034 0.00707349 0 0 0 -0.201312 -0.130729 0.0151609 -0.0042692 0.00137585 0.00241989 5.5742 -13.6626 9.5451 0.0025 
339 1 0.0403318 -0.0249655 0.00489015 0 0 0 0.74609 -0.0249759 -0.025075 0.0588391 0.0070653 0.0322344 2.24604 77.2498 21.7134 0.0025 
306 1 -0.0290291 -0.0187223 0.00263675 0 0 0 -0.0475597 -0.128274 1.06539 -0.00300924 0.00273599 -0.00253148 36.6157 -42.7273 -26.2933 0.0025 
374 1 -0.0106986 -0.0212041 0.012048 0 0 0 0.141096 0.245803 0.068856 0 0 -0.00160516 68.7456 -81.6101 17.044 0.0025 
52 1 -0.00068379 -0.0186449 0.00705385 0 0 0 0.443361 0.197161 -0.310474 0.139576 0.0859884 -0.140952 22.4974 -6.01202 -32.6662 0.0025 
12 1 0.00309039 -0.018384 0.011044 0 0 0 -0.283959 0.209079 0.578363 0 0 -0.00160516 -78.4006 -4.13456 29.2033 0.0025 
159 1 0.0195904 -0.0202411 0.00460536 0 0 0 0.411611 0.414912 -0.248823 0.0602218 0.229875 0.12045 -92.352 -38.9901 -0.32183 0.0025 
13 1 0.0239539 -0.0221904 0.0086465 0 0 0 -0.246683 -0.304414 0.0484382 0 0 -0.00160516 6.92386 -76.7803 -40.8022 0.0025 
196 1 -0.041435 -0.0133362 0.00427076 0 0 0 -0.225552 0.0670738 -0.796153 0 0 -0.00160516 77.7905 76.4335 -60.2357 0.0025 
372 1 -0.0391096 -0.0173375 0.00752726 0 0 0 -0.194871 0.285619 0.342057 0.0997962 0.0665454 0.0128737 11.26 -63.7973 30.9235 0.0025 
293 1 -0.0116947 -0.0176147 0.0083141 0 0 0 -0.08778 -0.127289 -0.259289 -0.0100877 -0.0039202 -0.0106134 2.28529 -4.24684 -33.502 0.0025 
226 1 -0.00455726 -0.0159714 0.00831219 0 0 0 0.0580481 0.463933 0.220951 -0.0796816 0.000683883 -0.140317 8.25196 39.1902 3.97386 0.0025 
366 1 0.0146039 -0.0159313 0.00625534 0 0 0 0.270484 -0.156537 -0.606922 -0.0867274 0.000307612 0.0893722 53.797 -33.0341 0.796735 0.0025 
313 1 0.0310737 -0.0197878 0.00869319 0 0 0 -0.162956 0.170802 -0.0547505 0 0 -0.00160516 15.0401 -1.08933 10.228 0.0025 
322 1 0.0449271 -0.0158436 0.0077261 0 0 0 1.00269 0.110593 -0.310069 -0.348452 0.104977 0.00512168 13.1755 -52.4425 26.4816 0.0025 
445 1 -0.0152557 -0.0122452 0.00695252 0 0 0 -0.399864 0.0334105 0.0171536 0 0 -0.00160516 74.2541 21.2403 -3.37017 0.0025 
240 1 0.00735059 -0.0108124 0.00771627 0 0 0 -0.50214 0.0418839 -0.179429 0 0 -0.00160516 74.8455 106.617 21.5672 0.0025 
20 1 0.026993 -0.0109798 0.0069661 0 0 0 -0.208229 -0.0746268 0.155492 0 0 -0.00160516 43.408 36.6723 30.1645 0.0025 
362 1 0.0352208 -0.0139596 0.00622196 0 0 0 -0.112324 0.253247 -0.953036 0 0 -0.00160516 -13.2365 18.2551 1.24556 0.0025 
439 1 -0.033671 -0.0109107 0.00636616 0 0 0 -0.234397 -0.104363 0.378141 0 0 -0.00160516 30.081 -71.4341 52.1046 0.0025 
65 1 -0.000208916 -0.012984 0.00846142 0 0 0 0.0516525 -0.491645 0.180852 0 0 -0.00160516 53.498 31.0513 -67.3804 0.0025 
21 1 0.00301614 -0.008047 0.00789502 0 0 0 -0.571387 0.133547 0.0397406 0 0 -0.00160516 5.49685 -13.7703 25.0184 0.0025 
233 1 0.013896 -0.0107102 0.00805064 0 0 0 -0.0915666 -0.386738 -0.566034 0.000880352 -0.0011849 -6.56385e-05 -9.94577 -60.2803 10.6443 0.0025 
338 1 0.0210433 -0.00915317 0.00780754 0 0 0 -0.0628061 -0.153616 -0.391835 0 0 -0.00160516 23.1332 -28.0573 -20.0126 0.0025 
47 1 0.0400696 -0.00824875 0.0120383 0 0 0 -0.158359 -0.188977 0.0508551 -0.0733944 0.0707162 -0.524535 -51.0173 -18.9364 -27.8944 0.0025 
221 1 -0.0386349 -0.00872006 0.0094785 0 0 0 -0.382939 -0.0167902 -0.522488 0.0324895 0.0391767 -0.00376685 -23.1368 2.65461 -0.143874 0.0025 
367 1 -0.028966 -0.00584891 0.00389122 0 0 0 0.0691304 0.176123 -0.418877 0 0 -0.00160516 -17.6363 -15.2068 -1.1134 0.0025 
328 1 -0.0180526 -0.00560404 0.00611087 0 0 0 -0.166752 0.134669 -0.0842016 0.0868632 -0.0248748 0.086793 32.6119 97.1456 -0.663383 0.0025 
426 1 0.0323516 -0.00879533 0.00742926 0 0 0 0.470426 -0.189612 0.0910747 -0.0810915 -0.0718986 -0.0944613 108.911 68.6577 5.28497 0.0025 
463 1 -0.0266705 -0.00322272 0.0734885 0 0 0 0 0 -0.892351 0 0 -0.00160516 0 0 0 0.0025 
184 1 -0.00454112 -0.00272214 0.00956124 0 0 0 0.0397898 0.186981 0.366452 -0.20909 0.0578856 0.0399506 66.697 -14.306 7.41265 0.0025 
1021 1 9.22747e-05 -0.00244337 0.00831294 0 0 0 -0.450778 0.0558147 0.257207 0.394065 0.0311024 -0.0884081 34.7266 40.7423 -35.7036 0.0025 
191 1 0.0102173 -0.00127616 0.0086079 0 0 0 0.190895 -0.16245 -0.266362 0 0 -0.00160516 -6.04068 5.11001 -12.1575 0.0025 
368 1 0.0229012 -0.00234409 0.00744009 0 0 0 0.0310109 0.201222 -0.503012 0 0 -0.00160516 74.4138 0.555451 -24.6904 0.0025 
807 1 0.0204463 -0.0116353 0.0728535 0 0 0 0 0 -0.892351 0 0 -0.00160516 0 0 0 0.0025 
621 1 0.0320883 -0.00806901 0.0708145 0 0 0 0 0 -0.892351 0 0 -0.00160516 0 0 0 0.0025 
116 1 0.00638339 -0.0459787 0.0174782 0 0 0 -0.00501643 -0.640844 0.237878 0 0 -0.00160516 7.95657 7.49461 -46.5377 0.0025 
217 1 -0.017291 -0.0442531 0.00715664 0 0 0 0.0343068 0.596369 -0.559859 0.000332313 0.000814038 -0.00156325 -49.475 22.782 20.3667 0.0025 
247 1 0.00999648 -0.04275 0.0146266 0 0 0 0.193295 0.0619979 -0.0131057 0 0 -0.00160516 -0.298479 -28.7993 -4.24734 0.0025 
243 1 0.016234 -0.0408644 0.0102131 0 0 0 0.43064 0.483382 -0.0688319 0 0 -0.00160516 -10.55 -51.5583 70.3403 0.0025 
410 1 -0.0102904 -0.040795 0.00805929 0 0 0 -0.168603 -0.462335 0.567326 0 0 -0.00160516 -7.95253 -73.8253 -24.5958 0.0025 
266 1 -0.0293891 -0.0333046 0.0128834 0 0 0 0.321846 -0.0290259 -0.814696 0.00765117 0.00460608 0.0188798 26.5005 -30.7673 65.2824 0.0025 
81 1 -0.016991 -0.0325547 0.00813894 0 0 0 -0.135163 0.0298413 -0.0867787 0 0 -0.00160516 -24.5048 -34.6048 -24.4524 0.0025 
230 1 0.00610284 -0.0356128 0.00668571 0 0 0 0.113866 -0.0146381 -0.84988 0 0 -0.00160516 -13.9602 -48.5712 -21.1496 0.0025 
440 1 0.0158524 -0.0330203 0.00910486 0 0 0 0.348292 -0.590798 0.180703 0 0 -0.00160516 67.9155 -26.6759 -55.2503 0.0025 
113 1 -0.0242242 -0.0305494 0.00808931 0 0 0 0.471384 0.577462 0.338769 0 0 -0.00160516 -118.512 12.2147 23.1696 0.0025 
320 1 0.00890932 -0.030984 0.0131157 0 0 0 0.277817 -0.485657 0.349599 0 0 -0.00160516 -34.5328 -22.4327 -7.37041 0.0025 
332 1 0.0247841 -0.0349325 0.00998631 0 0 0 0.234895 0.0742593 -0.0376075 -0.256413 -0.0500221 0.068565 0.794493 -32.2713 -72.7969 0.0025 
358 1 0.0308357 -0.0326485 0.0132171 0 0 0 0.501594 -0.267833 -0.0420682 0 0 -0.00160516 -62.607 33.8089 9.94047 0.0025 
286 1 -0.00793736 -0.0269147 0.00873565 0 0 0 0.512112 -0.0243056 -0.613795 0 0 -0.00160516 -12.2565 10.2463 6.39565 0.0025 
268 1 0.00428772 -0.0272675 0.00909161 0 0 0 -0.366334 -0.158162 -0.137268 0 0 -0.00160516 -59.2088 -0.793674 -56.3115 0.0025 
412 1 0.0259665 -0.0273897 0.00693455 0 0 0 0.225186 0.165103 -0.488221 0 0 -0.00160516 -30.7281 -12.6096 -14.1474 0.0025 
303 1 0.0346474 -0.0235299 0.00914525 0 0 0 0.713366 -0.0341236 -0.0332844 0 0 -0.00160516 -40.8582 7.07963 51.3334 0.0025 
260 1 -0.0383125 -0.0246985 0.0152298 0 0 0 -0.104281 -0.212294 0.291719 0.00921429 -0.0102125 -0.0227005 2.73205 17.2447 2.53677 0.0025 
262 1 0.0121902 -0.0243538 0.00982995 0 0 0 0.0330665 0.0955204 -0.122281 0 0 -0.00160516 -45.987 10.4776 -39.7128 0.0025 
424 1 0.0188795 -0.0215976 0.00986514 0 0 0 -0.3099 -0.12733 -0.470574 0 0 -0.00160516 4.44019 -35.6003 20.5654 0.0025 
58 1 -0.0327992 -0.0171922 0.00814361 0 0 0 -0.229949 0.182711 -0.948254 -0.0248716 -0.0353952 -0.0549929 35.4477 2.88945 16.1068 0.0025 
182 1 -0.0173236 -0.0213407 0.0123749 0 0 0 -0.0519432 -0.191724 -0.45458 -0.131439 -0.0929672 -0.113829 41.3339 -25.4971 -37.3221 0.0025 
75 1 0.0115369 -0.0201085 0.00723777 0 0 0 -0.0758771 0.0538079 0.173089 0 0 -0.00160516 -24.2084 -0.523743 -33.5673 0.0025 
109 1 0.0373739 -0.0200513 0.016023 0 0 0 0.421468 0.21324 0.146242 0 0 -0.00160516 52.545 3.77968 12.3353 0.0025 
187 1 -0.0249474 -0.0191735 0.0145073 0 0 0 0.029497 -0.0616172 -0.0321416 -0.0179201 0.00704821 -0.0425635 2.25361 -65.457 6.13565 0.0025 
163 1 -0.0170502 -0.0159434 0.00983415 0 0 0 -0.222179 -0.444011 -0.22313 0 0 -0.00160516 3.0832 51.8536 44.5898 0.0025 
23 1 -0.00825675 -0.0160204 0.0115427 0 0 0 -0.484514 0.346578 0.0559698 -0.0757348 0.0043568 0.0899407 -5.31998 -91.3182 -2.30065 0.0025 
273 1 0.0100073 -0.0135412 0.0118197 0 0 0 0.396596 -0.1097 -0.332266 -0.136151 0.00611251 -0.063987 -32.1505 5.36235 37.3685 0.0025 
379 1 0.0186655 -0.0150022 0.0111399 0 0 0 0.268604 0.457079 0.120474 0 0 -0.00160516 -63.0148 -48.1819 14.148 0.0025 
282 1 0.0372518 -0.0162604 0.0115748 0 0 0 0.279823 -0.0285098 -0.144071 0 0 -0.00160516 5.55303 -16.7109 67.1622 0.0025 
121 1 -0.026814 -0.0122212 0.00742837 0 0 0 0.227423 0.296818 -0.595527 0.21497 0.0446148 0.266833 6.30694 29.721 -1.59166 0.0025 
49 1 -0.0190859 -0.00950921 0.0098192 0 0 0 0.0955915 0.289195 0.0409566 0 0 -0.00160516 -97.3695 17.0345 -15.9298 0.0025 
326 1 -0.00974872 -0.0129985 0.00723571 0 0 0 0.107178 0.076122 -0.110372 -0.00798564 0.0387685 0.184884 -6.36915 -6.0448 8.63874 0.0025 
442 1 -0.0045123 -0.0121175 0.0113418 0 0 0 0.187921 0.159326 -0.568566 -0.000176998 0.114697 0.0979997 40.4015 -21.8057 3.55793 0.0025 
211 1 -0.0376494 -0.0113357 0.0141561 0 0 0 -0.397034 -0.352212 0.0473215 0 0 -0.00160516 -14.0296 -34.4799 -25.4321 0.0025 
289 1 0.0461055 -0.0106082 0.0125747 0 0 0 0.620101 -0.242006 0.196557 0 0 -0.00160516 -2.34738 6.3454 -32.4663 0.0025 
381 1 -0.0461899 -0.00310207 0.00821876 0 0 0 -0.547368 0.541561 -0.524195 0 0 -0.00160516 0.0479128 11.1307 -31.1682 0.0025 
270 1 -0.0304281 -0.00996625 0.0107713 0 0 0 -0.159179 -0.0318165 -0.513964 0 0 -0.00160516 21.3503 4.2321 8.99988 0.0025 
98 1 -0.0223807 -0.00295759 0.00847123 0 0 0 -0.0983431 -0.197138 -0.398634 -0.0108512 -0.0570445 0.0411565 41.2279 1.6703 -5.2681 0.0025 
251 1 -0.0124334 -0.00558288 0.00624782 0 0 0 0.0474217 -0.216661 -0.715264 0 0 -0.00160516 2.65075 21.2038 -31.4659 0.0025 
144 1 -0.00450999 -0.00839855 0.00777983 0 0 0 0.167753 -0.550952 0.338522 0 0 -0.00160516 25.2602 0.315104 40.0182 0.0025 
287 1 0.00438553 -0.00368485 0.0106944 0 0 0 -0.122449 0.0261474 -0.877855 0 0 -0.00160516 52.264 1.58566 28.8298 0.0025 
38 1 0.0107625 -0.00786629 0.0108291 0 0 0 -0.455677 0.0133434 -0.437187 0 0 -0.00160516 -18.8111 5.73942 -47.6292 0.0025 
551 1 -0.0334341 -0.00587358 0.0682791 0 0 0 0 0 -0.892351 0 0 -0.00160516 0 0 0 0.0025 
42 1 -0.0285007 -0.00333813 0.00971041 0 0 0 -0.249088 -0.347383 0.124443 0 0 -0.00160516 58.2718 12.5055 -2.87555 0.0025 
82 1 -0.0260805 -0.0368444 0.016097 0 0 0 0.373145 0.401309 -0.0550687 0 0 -0.00160516 -22.6222 1.00702 -34.257 0.0025 
271 1 -0.0188273 -0.0393519 0.011623 0 0 0 -0.0673812 -0.195554 -0.312913 0 0 -0.00160516 -14.4934 11.32 -30.4604 0.0025 
417 1 -0.00033303 -0.0338804 0.0117896 0 0 0 -0.162121 0.325552 -0.572519 -0.0499241 -0.0552749 0.0828834 29.1883 -58.0978 15.6307 0.0025 
16 1 -0.0223741 -0.0296622 0.0137834 0 0 0 0.589981 -0.0411221 -0.45985 0 0 -0.00160516 -13.4168 8.69997 18.2986 0.0025 
167 1 -0.0110863 -0.03026 0.0125125 0 0 0 -0.0266802 0.0679405 -0.328249 0 0 -0.00160516 -14.4129 -14.4242 1.71013 0.0025 
86 1 -0.00536417 -0.032691 0.0147274 0 0 0 -0.232315 -0.147445 0.0185855 0 0 -0.00160516 70.3338 -14.5316 10.9241 0.0025 
53 1 0.0169515 -0.0310472 0.0154134 0 0 0 0.124725 0.150585 -0.471989 0 0 -0.00160516 -20.1583 -47.48 -32.9543 0.0025 
314 1 -0.0264327 -0.0263503 0.0128398 0 0 0 -0.108253 -0.18547 -0.549083 0 0 -0.00160516 0.696243 3.80244 61.1494 0.0025 
394 1 -0.0208173 -0.0245387 0.0143488 0 0 0 -0.404674 -0.237152 -0.470392 0 0 -0.00160516 18.571 -52.9808 4.92629 0.0025 
265 1 -0.0143733 -0.0257075 0.0116366 0 0 0 -0.00956118 0.0182447 -0.754781 0 0 -0.00160516 20.4008 28.2582 34.6102 0.0025 
165 1 -0.00560292 -0.0246164 0.0149231 0 0 0 0.125736 0.150216 -0.0927174 0 0 -0.00160516 -12.1855 11.3832 20.356 0.0025 
295 1 -0.000252679 -0.0231069 0.00894997 0 0 0 0.109331 -0.0796641 -0.585431 0.101586 -0.367641 -0.0682437 2.42154 -48.2296 -1.38117 0.0025 
6 1 -0.0203116 -0.0174643 0.0157594 0 0 0 -0.055504 0.0112884 0.0537969 0 0 -0.00160516 -57.3822 48.2281 9.09456 0.0025 
201 1 -0.0142175 -0.0190417 0.0153468 0 0 0 0.123236 0.158059 0.413444 0.131439 0.0929672 0.110619 -17.8746 22.5275 56.4998 0.0025 
219 1 0.012238 -0.0201968 0.0126662 0 0 0 -0.188988 -0.0203589 -0.109217 0 0 -0.00160516 -2.23738 -25.733 -45.3335 0.0025 
304 1 0.0215963 -0.0183296 0.0138273 0 0 0 0.00186894 0.178566 -0.0221776 0 0 -0.00160516 40.3038 -9.68601 -20.4063 0.0025 
334 1 -0.00169383 -0.0199605 0.0123626 0 0 0 0.209349 -0.468281 -0.143767 -0.0754813 0.165835 0.16095 31.5238 3.70009 -20.086 0.0025 
3 1 -0.0416366 -0.0126398 0.00984427 0 0 0 0.270578 -0.511275 0.12344 -0.0324895 -0.0391767 0.000556533 59.5686 18.0422 -13.0737 0.0025 
382 1 -0.0264204 -0.0129881 0.0132493 0 0 0 -0.10031 -0.277157 -0.340976 0 0 -0.00160516 -2.96277 -16.4769 -4.71646 0.0025 
157 1 -0.0127332 -0.0101486 0.010837 0 0 0 -0.210799 0.57475 -0.289195 -0.00106038 -0.0262298 -0.0877729 -25.714 28.5388 -18.3939 0.0025 
269 1 0.0145022 -0.0135161 0.0137728 0 0 0 0.13395 0.0649059 -0.50773 0.136151 -0.00611251 0.0607767 18.1934 0.326632 -8.97767 0.0025 
151 1 0.0184516 -0.0085907 0.0179413 0 0 0 -0.511312 -0.611388 0.235321 0 0 -0.00160516 36.6387 36.8931 -3.31243 0.0025 
397 1 -0.0127166 -0.00894712 0.0156172 0 0 0 -0.39599 -0.362013 -0.170972 0.00106038 0.0262298 0.0845626 -37.0631 -16.0605 65.0062 0.0025 
79 1 0.000695433 -0.00879566 0.0136768 0 0 0 0.141953 0.0491894 -0.296104 0.184385 -0.111052 -0.143298 -4.83142 19.5678 -10.5216 0.0025 
198 1 0.0178382 -0.0055619 0.0112445 0 0 0 0.351107 0.311324 -0.366203 0 0 -0.00160516 9.16634 30.715 -12.8325 0.0025 
337 1 0.0297268 -0.0118774 0.0116347 0 0 0 0.236955 -0.11795 -0.384938 0 0 -0.00160516 31.6067 -61.9784 -5.43849 0.0025 
278 1 -0.008785 -0.00494917 0.0104359 0 0 0 -0.154504 -0.29339 0.0125334 -0.184975 -0.088988 0.043642 6.42837 -37.1153 30.308 0.0025 
254 1 0.0238252 -0.00690154 0.0115361 0 0 0 0.0582725 -0.016087 -0.896219 0 0 -0.00160516 -25.8288 -43.5977 -53.0756 0.0025 
430 1 0.0350584 -0.00611852 0.0105147 0 0 0 0.512954 0.547259 0.0390947 0.0327428 0.122064 0.161137 8.20602 -5.52122 -17.9651 0.0025 
99 1 0.0445218 -0.00522728 0.0138501 0 0 0 0.530737 -0.012491 -0.235445 0.00701747 -0.00375584 0.0970099 -44.7632 10.7353 -13.4599 0.0025 
258 1 -0.0165346 -0.00411964 0.0109407 0 0 0 -0.076972 0.0229841 -0.79067 0 0 -0.00160516 59.2694 60.1697 30.8074 0.0025 
484 1 0.0357463 -0.00319342 0.0690446 0 0 0 0 0 -0.892351 0 0 -0.00160516 0 0 0 0.0025 
596 1 0.00629951 -0.0045374 0.071913 0 0 0 0 0 -0.892351 0 0 -0.00160516 0 0 0 0.0025 
352 1 -0.0135831 -0.0402555 0.0134589 0 0 0 0.486886 -0.177519 -0.498936 0 0 -0.00160516 -0.516425 29.7455 13.4758 0.0025 
73 1 -0.00729034 -0.0418445 0.0129722 0 0 0 0 0 -0.892351 0 0 -0.00160516 0 0 0 0.0025 
4 1 0.00331516 -0.0373046 0.0143822 0 0 0 0.429436 -0.392182 -0.245687 0 0 -0.00160516 65.0096 33.8821 -21.3916 0.0025 
302 1 0.0127126 -0.0361025 0.0141924 0 0 0 0.190838 0.341964 -0.239891 0 0 -0.00160516 -35.3203 -0.75476 10.7244 0.0025 
97 1 0.021724 -0.0366274 0.0135195 0 0 0 -0.471839 0.402133 0.0493601 -0.0886689 0.135816 0.0794212 -25.508 -65.7382 21.5456 0.0025 
8 1 -0.0168943 -0.0288547 0.0156996 0 0 0 -0.239552 -0.00576278 -0.504582 -0.173447 0.143796 -0.127706 37.7192 -8.78741 33.1982 0.0025 
403 1 0.0125517 -0.0283012 0.0183531 0 0 0 -0.0198164 0.0474402 -0.305129 0 0 -0.00160516 -13.8252 10.3592 -6.92722 0.0025 
62 1 0.0227115 -0.0303138 0.0160975 0 0 0 0.007515 -0.236643 -0.363879 -0.000672104 -0.0262086 -0.0179407 -4.2789 -27.4368 -6.63869 0.0025 
223 1 0.0363022 -0.0250026 0.0138323 0 0 0 0.634753 -0.072969 -0.576773 0 0 -0.00160516 -19.4942 -2.43687 34.5394 0.0025 
145 1 -0.00839172 -0.0220877 0.0182796 0 0 0 0.450437 -0.000112771 -0.171902 0 0 -0.00160516 -12.0923 -31.8177 38.8838 0.0025 
68 1 0.00109924 -0.0248257 0.0153641 0 0 0 -0.239524 -0.0886937 -0.992372 0 0 -0.00160516 -43.5416 -32.7844 18.9409 0.0025 
76 1 0.00655309 -0.0241366 0.0125262 0 0 0 0.186195 0.211429 -0.594299 0 0 -0.00160516 -14.5413 -5.33603 12.8699 0.0025 
194 1 0.0209714 -0.026124 0.0138868 0 0 0 -0.037194 -0.363895 -0.815713 0 0 -0.00160516 56.3017 -13.0014 -0.277451 0.0025 
161 1 0.0227593 -0.0262332 0.0189243 0 0 0 -0.108247 -0.386001 -0.0450237 0.000672104 0.0262086 0.0147303 8.0004 -6.46171 -1.25668 0.0025 
402 1 -0.040361 -0.0227248 0.0193093 0 0 0 -0.512978 -0.512145 -0.414935 -0.00921429 0.0102125 0.0194902 -41.1887 40.5783 18.9703 0.0025 
296 1 -0.0316173 -0.0234851 0.0132592 0 0 0 -0.52238 -0.320337 -0.507846 0 0 -0.00160516 27.7811 -52.9113 -12.262 0.0025 
215 1 0.0175541 -0.021631 0.0147247 0 0 0 0.314735 -0.24208 -0.161283 0 0 -0.00160516 25.615 14.7716 -0.592118 0.0025 
436 1 -0.0150669 -0.0141362 0.0147917 0 0 0 0.459654 0.480875 -0.202781 0 0 -0.00160516 0.0460325 34.0452 -20.6535 0.0025 
57 1 0.00457703 -0.017586 0.0157834 0 0 0 0.208079 -0.492319 -0.0451787 0 0 -0.00160516 -28.3865 47.3995 11.4329 0.0025 