ITEM: TIMESTEP
4800
ITEM: NUMBER OF ATOMS
1800
ITEM: BOX BOUNDS mm mm mm
-0.05 0.05
-0.05 0.05
0 0.15
ITEM: ATOMS id type x y z ix iy iz vx vy vz fx fy fz omegax omegay omegaz radius 
85 1 -0.00767704 -0.0460739 0.00268294 0 0 0 0.812302 0.759989 0.119839 0 0 -0.00160516 58.4035 -24.7112 -31.8159 0.0025 
255 1 -0.00117968 -0.0474009 0.00263363 0 0 0 -0.439433 -0.0621466 -0.127946 0 0 -0.00160516 -47.0245 -22.6306 -126.474 0.0025 
241 1 0.00369813 -0.0451869 0.00244308 0 0 0 0.380118 0.0572561 0.0595467 -0.00345456 -0.00278121 0.0870947 66.8482 42.0005 3.86938 0.0025 
150 1 -0.000904255 -0.0418371 0.00338452 0 0 0 0.38039 0.387939 -0.0431267 0 0 -0.00160516 70.8654 -23.7532 -12.8031 0.0025 
103 1 -0.0158234 -0.0383481 0.00324895 0 0 0 -0.148972 -0.10101 0.211461 -0.0981445 0.15657 -0.0825014 13.3815 -29.7863 15.458 0.0025 
18 1 -0.00858406 -0.0375653 0.00536637 0 0 0 0.184968 -0.0429221 0.280703 0 0 -0.00160516 -13.7568 -58.0618 -71.0032 0.0025 
389 1 0.0233448 -0.0382795 0.00516796 0 0 0 -0.0268962 -0.414694 -0.127931 -0.108438 -0.146023 0.00406253 35.8618 111.356 44.8385 0.0025 
95 1 -0.0264225 -0.0324547 0.00263915 0 0 0 0.184213 0.0205566 -0.459116 -0.25656 -0.421173 -0.184751 25.354 53.1408 -68.1274 0.0025 
438 1 -0.0139923 -0.0321739 0.00243438 0 0 0 0.0126643 -0.190602 0.0757568 -0.0085899 -0.0608947 0.101649 -24.0135 -22.4523 2.70811 0.0025 
220 1 0.0160113 -0.0322754 0.00293777 0 0 0 -0.179378 0.034148 -0.751952 0 0 -0.00160516 77.8882 25.6537 66.5674 0.0025 
434 1 -0.0190382 -0.0305607 0.00240433 0 0 0 0.0405366 0.0828376 0.390286 -0.00349314 -0.0086974 0.185848 -15.9509 9.38333 43.4571 0.0025 
354 1 -0.0094987 -0.0318464 0.0051197 0 0 0 -0.153607 -0.0881816 0.190219 0 0 -0.00160516 29.7016 -13.5977 5.31301 0.0025 
141 1 0.00217229 -0.0330051 0.00250876 0 0 0 -0.24463 -0.427904 0.526878 0 0 -0.00160516 47.6452 -19.4869 71.1144 0.0025 
309 1 0.0260551 -0.034221 0.00500762 0 0 0 -0.226169 0.230296 -0.266324 0.108438 0.146023 -0.00727285 -30.3599 -17.4769 66.7407 0.0025 
294 1 -0.0320845 -0.0285521 0.00525002 0 0 0 0.000287389 0.0406101 0.331342 0 0 -0.00160516 -18.0447 5.37059 -18.8147 0.0025 
218 1 -0.00352744 -0.0295181 0.00253618 0 0 0 -0.0966541 -0.25074 -0.0975411 0 0 -0.00160516 48.5185 -8.41195 5.34989 0.0025 
126 1 0.00673919 -0.0300047 0.00263149 0 0 0 -0.145953 -0.555748 0.222049 0 0 -0.00160516 62.5452 -10.4899 49.7275 0.0025 
66 1 0.0223688 -0.0298768 0.00433351 0 0 0 0.326446 -0.736333 -0.424627 0 0 -0.00160516 24.7619 33.4507 2.27742 0.0025 
205 1 0.0350782 -0.0265155 0.00352722 0 0 0 0.293514 -0.393987 -0.296911 0.270055 -0.164395 -0.239742 29.9801 20.7439 -11.0305 0.0025 
365 1 -0.0272481 -0.024317 0.00272165 0 0 0 -0.447031 0.128764 -0.373086 0 0 -0.00160516 38.2566 45.5263 24.4582 0.0025 
225 1 -0.00224277 -0.0241983 0.00266891 0 0 0 -0.0695746 -0.282444 0.378686 0 0 -0.00160516 80.4536 -30.9161 -30.447 0.0025 
134 1 0.0194493 -0.0262507 0.0024714 0 0 0 0.199948 -0.143647 0.121843 -0.0012879 0.000776062 0.0284679 11.9764 4.40886 30.7371 0.0025 
448 1 0.0277 -0.0234256 0.00397913 0 0 0 -0.102995 0.0333025 -0.212865 0 0 -0.00160516 22.8395 85.8272 -30.1494 0.0025 
10 1 -0.038545 -0.024585 0.00285878 0 0 0 0.237377 -0.574009 0.225443 0 0 -0.00160516 -15.1917 -3.45941 -13.7419 0.0025 
306 1 -0.0322487 -0.0207834 0.0032161 0 0 0 -0.727306 -0.258899 -0.396341 0 0 -0.00160516 -14.3608 -22.9658 27.932 0.0025 
32 1 0.00801162 -0.0190941 0.00279956 0 0 0 0.128559 0.0844248 0.114358 -0.0555717 0.0376262 -0.140342 -8.12008 68.7044 -56.7229 0.0025 
346 1 0.0145615 -0.0229513 0.00278865 0 0 0 0.0610191 -0.0105724 -0.370624 0 0 -0.00160516 -40.1956 31.9585 -52.3116 0.0025 
40 1 -0.00770867 -0.0164798 0.00377333 0 0 0 0.0515138 -0.103213 0.0462378 0 0 -0.00160516 -39.4541 13.8879 -6.4101 0.0025 
321 1 -0.00257296 -0.0167502 0.0026815 0 0 0 0.0424084 0.32127 0.0293327 0 0 -0.00160516 18.3403 2.79523 -38.2835 0.0025 
405 1 0.00307368 -0.014305 0.00314744 0 0 0 -0.241705 -0.0980663 0.728936 0 0 -0.00160516 17.0484 -43.8079 0.705536 0.0025 
142 1 0.0181552 -0.0137868 0.00266542 0 0 0 0.0235266 0.0268219 -0.166309 0 0 -0.00160516 -6.17413 75.4897 18.8026 0.0025 
336 1 -0.0235046 -0.0138759 0.00271068 0 0 0 -0.368188 0.274752 0.0786577 0.021855 -0.00044588 -0.0390792 5.22043 2.66736 40.0837 0.0025 
158 1 -0.0121046 -0.013098 0.00294375 0 0 0 -0.0870935 -0.44125 -0.122871 0 0 -0.00160516 13.8144 35.781 11.3249 0.0025 
22 1 -0.00325725 -0.0103469 0.00362966 0 0 0 -0.268938 -0.251985 -0.466665 0.0722202 -0.0980611 -0.301945 38.494 70.7847 51.3064 0.0025 
2 1 0.025088 -0.0132576 0.00278013 0 0 0 -0.137002 -0.155445 -0.0926622 0 0 -0.00160516 -5.04262 -44.5961 10.2731 0.0025 
237 1 0.0298986 -0.00837165 0.00280177 0 0 0 0.331371 0.644282 0.750699 0.0510696 -0.00833011 -0.0079435 -2.37036 143.225 29.5997 0.0025 
292 1 -0.0448585 -0.00657299 0.00256678 0 0 0 0.317364 0.452778 0.0136555 0 0 -0.00160516 -15.1974 2.19457 83.2049 0.0025 
136 1 -0.0402097 -0.0085395 0.00239783 0 0 0 -0.467519 0.31943 0.0903275 0.00592791 -0.00890963 0.212424 80.4712 -50.5957 -33.0198 0.0025 
238 1 -0.0325728 -0.00881025 0.00478954 0 0 0 -0.115876 -0.241234 0.20486 -0.0810542 0.0538566 -0.105104 39.0799 0.475981 -3.81853 0.0025 
331 1 -0.0185254 -0.00872818 0.00295576 0 0 0 -0.198847 0.161887 -0.183899 0.00762871 0.108699 -0.0892235 21.4343 -51.3901 13.1849 0.0025 
80 1 0.0160867 -0.00900775 0.00276738 0 0 0 -0.208408 0.0149932 0.0635218 0 0 -0.00160516 20.3908 -9.46004 -40.4496 0.0025 
122 1 0.0422854 -0.00881838 0.00309983 0 0 0 -0.387947 0.136402 -0.518544 0 0 -0.00160516 -77.0292 35.2862 72.4617 0.0025 
342 1 -0.0231008 -0.00437105 0.00342584 0 0 0 0.0496229 -0.161761 -0.0591305 -0.013794 -0.0800049 -0.0728786 -53.5413 -54.6848 30.9733 0.0025 
117 1 -0.00732528 -0.0071536 0.00291489 0 0 0 -0.120843 -0.041957 0.209315 0 0 -0.00160516 -6.30422 -6.24532 -23.749 0.0025 
202 1 0.00674726 -0.00719777 0.00330457 0 0 0 0.170973 0.390907 -0.246456 0 0 -0.00160516 25.7727 29.3788 -4.45181 0.0025 
408 1 0.0201951 -0.00578379 0.00334428 0 0 0 0.515 0.184528 -0.374577 0 0 -0.00160516 -31.7614 90.8483 -61.6768 0.0025 
92 1 0.0250069 -0.00770366 0.00319326 0 0 0 0.582843 0.0972761 0.295121 -0.0510696 0.00833011 0.00473319 93.9701 2.83265 -29.1437 0.0025 
147 1 0.00630545 -0.00171356 0.00337229 0 0 0 0.194634 0.355909 0.307079 -0.240144 -0.0574149 -0.00146314 -14.0447 -28.1395 -17.1717 0.0025 
217 1 -0.0182109 -0.0429931 0.0034914 0 0 0 -0.152388 -0.71485 -0.604163 0.00190816 -0.00132687 -0.0014568 30.3874 6.88758 13.8776 0.0025 
279 1 0.0142982 -0.0442565 0.00284726 0 0 0 0.231265 -0.934661 -0.466073 0 0 -0.00160516 1.97646 -27.8952 10.7368 0.0025 
101 1 0.00777646 -0.0413054 0.00246352 0 0 0 -0.29 0.0591417 0.361083 0.00184171 -0.000790258 0.0384768 36.1693 22.9575 -11.8389 0.0025 
409 1 0.0184885 -0.0399561 0.00483944 0 0 0 -0.19053 -0.166926 0.125751 0 0 -0.00160516 16.3002 46.5957 3.12841 0.0025 
413 1 -0.027421 -0.0379994 0.00412314 0 0 0 -0.353363 -0.134401 -0.0773747 0 0 -0.00160516 -21.3827 -30.2557 -54.2932 0.0025 
37 1 -0.0222474 -0.0400631 0.00340122 0 0 0 -0.331784 -0.161859 0.134049 -0.00190816 0.00132687 -0.00175352 31.8481 -77.6839 -7.59124 0.0025 
28 1 -0.00386437 -0.0392082 0.00730895 0 0 0 0.182866 -0.22952 -0.387056 -0.0353097 -0.136094 -0.138484 56.6632 -41.3491 35.6653 0.0025 
257 1 0.000792977 -0.0370616 0.00684512 0 0 0 0.3061 -0.250541 -0.00674244 0 0 -0.00160516 3.6343 -68.4451 40.0303 0.0025 
78 1 -0.0367524 -0.0298378 0.0037416 0 0 0 -0.124169 0.649667 0.265609 0 0 -0.00160516 -48.1952 -63.7912 -31.8232 0.0025 
230 1 0.0067704 -0.0360229 0.00337101 0 0 0 -0.37521 -0.12381 -0.25251 0 0 -0.00160516 -57.2105 -46.5319 -9.78323 0.0025 
234 1 0.0116302 -0.0376953 0.00491818 0 0 0 0.546342 -0.226055 0.280798 0 0 -0.00160516 65.9957 62.9318 61.2714 0.0025 
369 1 0.0324427 -0.0302166 0.00632814 0 0 0 0.244621 -0.0177142 -0.139757 0 0 -0.00160516 0.602057 44.8717 -7.77615 0.0025 
378 1 -0.0134011 -0.0272761 0.00267392 0 0 0 0.147547 0.129881 -0.518104 0.00707635 0.0661669 0.00484329 -77.3153 13.582 -2.06842 0.0025 
70 1 -0.000207321 -0.031066 0.00796487 0 0 0 0.233284 -0.452937 0.271307 -0.175653 0.0520051 -0.112618 -11.6875 3.50052 11.7217 0.0025 
30 1 0.0104088 -0.026371 0.00466532 0 0 0 0.103043 -0.0941211 0.0845585 -0.300343 0.17415 -0.113013 50.1057 62.2935 -14.9683 0.0025 
307 1 0.014385 -0.0285281 0.00633011 0 0 0 -0.30934 0.510235 0.363135 0.300343 -0.17415 0.109802 43.1758 -1.93283 -22.9594 0.0025 
412 1 0.0269938 -0.0275088 0.00759757 0 0 0 -0.42352 0.11416 0.299231 0 0 -0.00160516 -80.949 20.8039 -13.5642 0.0025 
132 1 0.0319685 -0.0245018 0.00658793 0 0 0 0.161198 -0.140818 0.013449 -0.386053 0.110167 0.184164 -80.2864 3.27067 -5.17065 0.0025 
195 1 -0.022491 -0.0242562 0.00576182 0 0 0 -0.35139 -0.119783 -0.287094 0.0380151 0.0913301 0.0236804 0.049463 -1.60658 15.0383 0.0025 
421 1 -0.0170386 -0.0229487 0.00407423 0 0 0 -0.298947 0.280959 -0.0210146 0 0 -0.00160516 -43.6055 -22.2088 75.6198 0.0025 
433 1 -0.0112344 -0.022478 0.004374 0 0 0 0.252701 0.430048 -0.227832 0 0 -0.00160516 28.6009 -21.5631 -35.6947 0.0025 
87 1 0.00594624 -0.0228422 0.00527441 0 0 0 -0.0053453 0.149831 -0.187571 -0.0252556 -0.0478057 0.0331993 4.39526 -54.7842 22.1135 0.0025 
339 1 0.0412803 -0.0229731 0.00240409 0 0 0 -0.420444 -0.143945 -0.386474 0.00928404 0.00429374 0.202972 -14.4096 -13.3413 -37.1578 0.0025 
231 1 -0.0423946 -0.0212621 0.00603783 0 0 0 0.00277892 0.0889607 0.137895 0 0 -0.00160516 -44.0636 38.6902 -89.3288 0.0025 
380 1 -0.0179867 -0.016811 0.00305879 0 0 0 0.616561 0.0568194 -0.204511 0 0 -0.00160516 -29.3326 -4.84305 39.9029 0.0025 
52 1 0.000331525 -0.018773 0.00633662 0 0 0 0.193707 -0.0927328 0.0463045 0 0 -0.00160516 76.4863 -5.335 16.2864 0.0025 
159 1 0.0226205 -0.0202173 0.0024062 0 0 0 0.00947431 0.170266 0.570244 -0.00720947 0.00521857 0.176395 -74.6201 -2.29404 35.3331 0.0025 
386 1 0.0348802 -0.0210832 0.00268357 0 0 0 0.189247 -0.0341615 -0.19152 0 0 -0.00160516 11.3546 -1.68592 -11.2542 0.0025 
104 1 0.0407927 -0.017065 0.00231482 0 0 0 0.350176 0.769781 -0.00480409 -0.0134674 -0.0226578 0.525556 -49.7505 -15.0226 -28.5498 0.0025 
15 1 -0.0226682 -0.0191318 0.00553353 0 0 0 0.22597 -0.272902 0.0150039 0 0 -0.00160516 -74.027 125.415 32.7245 0.0025 
7 1 0.011284 -0.0142629 0.00294254 0 0 0 -0.0678413 -0.285013 0.129554 0 0 -0.00160516 -52.3985 80.4378 -31.5741 0.0025 
366 1 0.0155722 -0.0175946 0.00484917 0 0 0 0.323562 -0.334235 -0.102411 0 0 -0.00160516 14.0656 -49.9075 15.7154 0.0025 
196 1 -0.043289 -0.0146583 0.00537236 0 0 0 0.215451 -0.325571 -0.255787 0 0 -0.00160516 46.1134 12.4233 -84.9188 0.0025 
439 1 -0.0374896 -0.0117963 0.00611909 0 0 0 -0.153339 -0.628651 -0.0214861 0 0 -0.00160516 105.16 4.11872 20.2261 0.0025 
74 1 -0.0301601 -0.0135003 0.00366963 0 0 0 0.230333 0.180089 0.366673 0 0 -0.00160516 15.5881 -52.336 21.3654 0.0025 
445 1 -0.0190001 -0.0126088 0.00591715 0 0 0 -0.615475 0.0673052 -0.589987 -0.00762871 -0.108699 0.0860132 26.5043 31.5023 -7.73121 0.0025 
347 1 0.00176675 -0.00833297 0.00257115 0 0 0 -0.110945 0.215852 0.064193 0 0 -0.00160516 -16.2931 22.8838 -20.8297 0.0025 
20 1 0.027709 -0.0105223 0.00719008 0 0 0 0.244395 -0.0464725 0.100442 -0.136711 -0.0397339 -0.0182075 41.5856 10.251 54.1598 0.0025 
362 1 0.0355707 -0.0147101 0.00505329 0 0 0 -0.104887 -0.03189 0.889056 0 0 -0.00160516 25.4971 -37.7421 48.7499 0.0025 
449 1 -0.0253193 -0.00752678 0.00842839 0 0 0 -0.0814557 -0.222644 0.532839 0 0 -0.00160516 -30.3668 -33.2713 0.0583156 0.0025 
24 1 0.0118692 -0.00562115 0.00386603 0 0 0 0.00118737 0.266735 -0.25439 0 0 -0.00160516 22.1283 28.2182 61.1359 0.0025 
425 1 0.0362916 -0.0071687 0.00346289 0 0 0 -0.571166 0.809405 -0.562479 0 0 -0.00160516 6.44511 -32.4676 -12.5422 0.0025 
246 1 -0.0386794 -0.00337368 0.00699758 0 0 0 -0.149544 0.18572 0.032458 0 0 -0.00160516 48.6871 33.8266 6.45161 0.0025 
367 1 -0.0278165 -0.00556694 0.00455127 0 0 0 0.108665 0.143858 0.292636 -0.00262256 -0.000761506 -0.00107921 26.0097 24.3449 21.7219 0.0025 
328 1 -0.0182251 -0.00435837 0.00554403 0 0 0 0.000936039 0.152732 -0.0477606 0 0 -0.00160516 -31.7671 75.1952 25.0846 0.0025 
251 1 -0.0118167 -0.00479084 0.00307134 0 0 0 0.110003 0.0546288 0.593292 0 0 -0.00160516 -29.6961 59.373 -30.0667 0.0025 
222 1 -0.000167396 -0.00320625 0.00244827 0 0 0 0.0946727 0.370107 0.424788 -0.00195423 -0.00290948 0.0684922 -23.3743 -46.5468 -3.71472 0.0025 
393 1 0.0339976 -0.00410115 0.00739024 0 0 0 0.172642 -0.11798 0.221417 0 0 -0.00160516 -15.3404 -17.0943 -6.91804 0.0025 
949 1 -0.0330001 -0.00284415 0.00303388 0 0 0 -0.271671 -0.174706 -0.34186 0 0 -0.00160516 19.4675 48.647 11.417 0.0025 
901 1 -0.0151328 -0.000475967 0.00701173 0 0 0 0.0516177 0.136117 0.182498 0 0 -0.00160516 31.1733 -43.5072 7.63416 0.0025 
61 1 -0.00550415 -0.00218298 0.00532989 0 0 0 0.084694 -0.358531 0.169862 -0.000827499 0.000185511 -0.00130243 -46.4803 -67.5477 19.0417 0.0025 
368 1 0.0244007 -0.0013626 0.0071451 0 0 0 0.191574 0.150852 0.239869 0 0 -0.00160516 60.9996 29.7364 -3.92116 0.0025 
305 1 0.0403565 -0.00282825 0.00256555 0 0 0 0.44248 -0.0858081 -0.224743 0 0 -0.00160516 -51.4105 31.5612 16.0461 0.0025 
189 1 0.00216449 -0.0475309 0.00835278 0 0 0 -0.505893 0.662771 -0.0370453 0.000532029 0.136304 -0.000598897 -0.237694 -13.216 98.8425 0.0025 
410 1 -0.0134014 -0.0422131 0.0049798 0 0 0 -0.210419 -0.00145979 -0.227792 0.0981445 -0.15657 0.0792911 -94.4905 -30.0168 -11.5245 0.0025 
416 1 0.000443754 -0.0405758 0.0112788 0 0 0 -0.188581 0.0454032 0.262845 0 0 -0.00160516 -14.2768 4.30139 39.9662 0.0025 
29 1 0.0106715 -0.0440682 0.00960444 0 0 0 0.288648 -0.482853 -0.43967 -0.0299156 -0.063469 -0.166942 34.4429 -8.12 62.177 0.0025 
243 1 0.0179849 -0.0422056 0.00974463 0 0 0 -0.191927 -0.565653 -0.0755322 0 0 -0.00160516 -2.22433 -27.289 138.415 0.0025 
244 1 -0.0327086 -0.0338569 0.00539054 0 0 0 0.104092 0.398107 -0.228293 0 0 -0.00160516 -23.6447 56.1236 -0.678205 0.0025 
81 1 -0.0176394 -0.0329958 0.00665604 0 0 0 0.0919115 -0.546685 -0.659937 0.000267896 0.000485348 -0.00196879 -107.897 -32.5669 -11.6784 0.0025 
444 1 -0.0121021 -0.0360921 0.00959551 0 0 0 -0.295168 -0.294538 0.00511255 0 0 -0.00160516 -101.533 -5.20217 -38.2231 0.0025 
440 1 0.0189077 -0.0323843 0.00713343 0 0 0 0.531673 0.35658 -0.745826 0 0 -0.00160516 109.75 -45.8452 1.17312 0.0025 
332 1 0.0226809 -0.034801 0.00941769 0 0 0 -0.24412 0.208969 -0.327803 0 0 -0.00160516 1.8761 -22.6443 -87.9621 0.0025 
280 1 0.0303556 -0.0365333 0.00845748 0 0 0 -0.14594 -0.45984 -0.187976 0 0 -0.00160516 -74.8454 45.8106 33.5866 0.0025 
113 1 -0.0240945 -0.028743 0.00451247 0 0 0 0.565906 0.246672 -0.201227 0.218545 0.329843 0.156255 -1.45241 -14.7703 6.63398 0.0025 
60 1 0.00424429 -0.0331284 0.00744939 0 0 0 0.10294 0.0406952 -0.216913 0.158138 -0.136558 -0.235116 -36.6095 -8.48805 1.49312 0.0025 
373 1 0.0101123 -0.0327346 0.00875396 0 0 0 0.611304 -0.604362 0.225891 0 0 -0.00160516 -42.9478 -13.2787 -84.7313 0.0025 
102 1 -0.0358974 -0.0309431 0.00865595 0 0 0 0.772399 -0.263643 -0.179093 0 0 -0.00160516 -29.7797 4.69515 -17.9673 0.0025 
286 1 -0.00719452 -0.0265791 0.00826497 0 0 0 0.173114 -0.0977522 -0.664134 0 0 -0.00160516 5.00047 8.39677 -10.9531 0.0025 
268 1 0.0055635 -0.0278476 0.00790849 0 0 0 0.230956 -0.169916 -0.189183 0 0 -0.00160516 -82.2493 -47.612 -23.7199 0.0025 
179 1 0.0164218 -0.025924 0.0117681 0 0 0 0.118163 0.158987 0.0878047 0 0 -0.00160516 16.1177 -9.00434 -8.29759 0.0025 
11 1 -0.0286591 -0.0227251 0.0080968 0 0 0 -0.135343 0.0859247 -0.0319318 0 0 -0.00160516 -87.1194 60.8257 -59.1336 0.0025 
295 1 0.000301383 -0.0258015 0.00675257 0 0 0 -0.177597 -0.498678 -0.0986518 0 0 -0.00160516 3.30137 -62.7758 -7.4439 0.0025 
262 1 0.0111553 -0.0234536 0.00879875 0 0 0 -0.291058 -0.293596 -0.482119 0.00106424 -0.0154988 0.00520292 -33.6718 5.79182 -75.9708 0.0025 
424 1 0.0180648 -0.0215286 0.00711069 0 0 0 0.166717 0.0658876 -0.0970312 0 0 -0.00160516 -23.9957 -31.3947 40.683 0.0025 
13 1 0.0232372 -0.0225195 0.00755167 0 0 0 0.417141 0.0301477 -0.61066 0 0 -0.00160516 8.5155 -59.2721 -7.41574 0.0025 
303 1 0.0359436 -0.0224015 0.00854231 0 0 0 0.241206 0.412221 0.165458 0.0011114 0.160373 -0.0926013 16.7853 -11.9992 83.7073 0.0025 
75 1 0.0110415 -0.0189596 0.00666129 0 0 0 0.0195886 -0.440915 -0.424415 0.0950817 -0.0263446 0.0751471 37.4498 20.0469 -52.1758 0.0025 
313 1 0.03097 -0.0183559 0.0065231 0 0 0 0.0111956 0.563201 -0.375325 0 0 -0.00160516 -8.04441 -20.109 -0.370375 0.0025 
372 1 -0.0402038 -0.0186146 0.0103506 0 0 0 -0.25465 -0.197075 0.451088 0 0 -0.00160516 48.754 -26.9807 53.5853 0.0025 
58 1 -0.0364324 -0.0176683 0.00308118 0 0 0 -0.534392 -0.382892 -0.495078 0 0 -0.00160516 63.7655 -31.9391 40.7008 0.0025 
163 1 -0.0192846 -0.017889 0.0108313 0 0 0 -0.327058 -0.190142 0.166231 0.109492 -0.0425992 -0.365721 6.20925 61.7838 37.3716 0.0025 
293 1 -0.0125707 -0.0179012 0.00627451 0 0 0 -0.141575 0.145337 -0.200916 0 0 -0.00160516 -10.3823 -10.2052 -26.3081 0.0025 
226 1 -0.00504211 -0.0154828 0.00832135 0 0 0 -0.38297 0.666383 -0.187404 -0.0710693 0.142477 -0.096401 3.52862 27.0065 -15.2225 0.0025 
383 1 0.00596803 -0.018092 0.0102193 0 0 0 -0.0751933 -0.195962 0.194356 0.0299639 0.00269892 -0.0264821 -57.5697 26.8141 -15.0912 0.0025 
140 1 0.0230922 -0.0153815 0.00703371 0 0 0 -0.172461 -0.0583363 -0.111378 0 0 -0.00160516 25.1519 80.4499 -21.3462 0.0025 
322 1 0.0419608 -0.0133091 0.00613111 0 0 0 0.229648 -0.206237 -0.0158621 0 0 -0.00160516 -13.9345 -71.3051 -54.2771 0.0025 
3 1 -0.0455959 -0.0137823 0.0103446 0 0 0 0.0620414 -0.235836 0.805433 0.307261 0.0977313 -0.0170404 23.9447 87.0508 22.5309 0.0025 
121 1 -0.0258944 -0.0140411 0.00704779 0 0 0 -0.260827 -0.190493 0.316067 -0.021855 0.00044588 0.0358689 10.9137 7.6048 49.6267 0.0025 
326 1 -0.00932851 -0.00993961 0.00805224 0 0 0 0.0360411 0.433706 0.00406265 0 0 -0.00160516 7.40158 -25.5947 -3.14822 0.0025 
65 1 0.00103309 -0.0128802 0.0081016 0 0 0 0.205006 0.232257 -0.295117 0 0 -0.00160516 42.4564 28.8363 -68.2155 0.0025 
240 1 0.00624687 -0.0118482 0.0062102 0 0 0 -0.195071 -0.0781388 -0.273859 0 0 -0.00160516 83.4741 71.1051 15.11 0.0025 
233 1 0.0133235 -0.0112342 0.00640366 0 0 0 0.470916 -0.00142312 0.366776 -0.000384565 0.0120502 -0.108242 1.42326 -64.7091 -12.5134 0.0025 
105 1 -0.0459193 -0.00588463 0.00942914 0 0 0 -0.300548 0.133839 0.213821 0 0 -0.00160516 -18.8019 -67.6557 -31.4821 0.0025 
221 1 -0.0419873 -0.00995501 0.00993211 0 0 0 0.296564 0.472674 0.343636 0 0 -0.00160516 -3.94729 -0.540621 4.8021 0.0025 
270 1 -0.0296296 -0.0107661 0.00819029 0 0 0 0.107959 -0.367848 -0.467067 0.0797854 -0.0476174 0.0972879 -1.39365 24.1527 31.4471 0.0025 
49 1 -0.0205304 -0.00703472 0.0100614 0 0 0 -0.397205 0.325127 0.01364 0 0 -0.00160516 -94.7785 39.3744 -6.77224 0.0025 
157 1 -0.0137423 -0.00778169 0.00696652 0 0 0 0.123831 0.0632441 -0.617496 0 0 -0.00160516 0.452476 46.1961 -22.2364 0.0025 
144 1 -0.0043952 -0.00911315 0.00815637 0 0 0 -0.390287 -0.274092 0.269228 -0.0722202 0.0980611 0.298734 -12.1604 -8.35293 64.8016 0.0025 
21 1 0.00176712 -0.00642716 0.00768789 0 0 0 -0.141632 0.422839 0.358756 0 0 -0.00160516 -1.58147 29.5478 -4.57154 0.0025 
38 1 0.00988958 -0.0080795 0.00869137 0 0 0 -0.196913 0.226128 0.0711107 0.213833 -0.119714 -0.225119 -62.001 -12.26 -66.8181 0.0025 
338 1 0.0210631 -0.0110135 0.00566617 0 0 0 -0.0265632 -0.331846 0.337982 0 0 -0.00160516 45.0606 -26.862 -51.8525 0.0025 
426 1 0.032311 -0.00893 0.00776932 0 0 0 -0.157816 0.15285 0.0362167 0.136711 0.0397339 0.0149972 95.2502 53.9289 -27.3566 0.0025 
258 1 -0.0153131 -0.00408304 0.0106886 0 0 0 -0.044965 0.397422 -0.263605 0 0 -0.00160516 31.6966 26.0541 44.3578 0.0025 
278 1 -0.00922341 -0.00570598 0.0110977 0 0 0 -0.0233157 -0.109513 0.0513778 -0.1546 -0.218368 -0.0258043 22.1793 -52.9314 19.4277 0.0025 
287 1 0.00686668 -0.00350783 0.00798721 0 0 0 0.206681 0.0966792 0.306469 -0.00511469 0.269334 -0.452866 46.9594 -15.0753 -1.47722 0.0025 
430 1 0.03805 -0.00389317 0.0108346 0 0 0 -0.161997 -0.205516 0.386364 -0.150564 -0.096157 0.117701 1.48367 42.9125 -17.6266 0.0025 
1100 1 0.046735 -0.00534992 0.00688746 0 0 0 0.265296 0.591716 0.325967 0 0 -0.00160516 -38.7722 -31.9698 16.2137 0.0025 
381 1 -0.0449037 -0.00121263 0.00757082 0 0 0 0.580225 0.383798 0.02686 0 0 -0.00160516 14.379 -28.1823 13.0866 0.0025 
42 1 -0.0305713 -0.00432893 0.00927387 0 0 0 -0.0860465 0.306871 -0.277564 0 0 -0.00160516 35.4741 15.4532 27.0833 0.0025 
98 1 -0.0225995 -0.000712581 0.00667095 0 0 0 -0.535415 0.281726 0.217095 -0.0249795 0.0664618 0.11716 -12.7678 -29.7165 -9.67844 0.0025 
184 1 -0.00645489 -0.00172455 0.0112965 0 0 0 -0.342336 -0.395362 -0.14475 0.144505 0.217336 0.0274342 11.0857 -5.51906 -3.62363 0.0025 
1021 1 -0.00192259 -0.00110102 0.00932729 0 0 0 -0.0770168 0.0414106 0.247152 0.0458441 -0.0778838 -0.0610785 57.0935 57.2124 -61.7942 0.0025 
191 1 0.0118701 -0.0031535 0.0082266 0 0 0 0.314974 -0.126774 0.341648 0 0 -0.00160516 22.4371 -0.46098 -26.4951 0.0025 
271 1 -0.0195188 -0.0425975 0.00891149 0 0 0 -0.204565 -0.595699 -0.0641355 0 0 -0.00160516 -14.793 13.8996 -20.0309 0.0025 
352 1 -0.0149831 -0.0408052 0.0114569 0 0 0 -0.448732 -0.0202859 -0.245823 0 0 -0.00160516 29.0733 88.7616 -11.4982 0.0025 
73 1 -0.00510074 -0.0446849 0.00902084 0 0 0 -0.100217 -0.734328 -0.859583 0 0 -0.00160516 -38.1039 33.5998 62.5135 0.0025 
186 1 0.0237538 -0.0404507 0.0108246 0 0 0 -0.520109 0.786328 0.458512 0 0 -0.00160516 55.7025 98.8968 61.9722 0.0025 
4 1 0.00757773 -0.040231 0.010541 0 0 0 0.670046 -0.770022 -0.241599 0 0 -0.00160516 87.4648 37.5002 -19.7921 0.0025 
302 1 0.0143821 -0.036679 0.0116217 0 0 0 0.304118 -0.227644 -0.394245 0.0922609 0.0105091 -0.111452 16.2598 6.97991 27.4314 0.0025 
97 1 0.0191873 -0.0368766 0.0144119 0 0 0 -0.173381 -0.468087 -0.0419922 -0.0418883 -0.0198346 -0.0387017 -39.1965 -75.3806 -21.5732 0.0025 
266 1 -0.0258196 -0.0316858 0.00899928 0 0 0 0.332671 0.274896 -0.850822 0 0 -0.00160516 49.7661 -16.8136 43.5164 0.0025 
417 1 -0.0032219 -0.0357622 0.0107028 0 0 0 -0.432323 -0.254076 -0.198274 -0.122044 0.109564 -0.159522 38.8598 -68.971 27.657 0.0025 
358 1 0.0340572 -0.0331967 0.0133296 0 0 0 0.357741 0.413354 0.397564 -0.0704984 0.0645351 -0.00532616 -116.066 7.2377 -30.3204 0.0025 
16 1 -0.0225539 -0.0313847 0.0142509 0 0 0 -0.0473084 -0.145955 0.150334 0 0 -0.00160516 57.7945 -6.95151 39.0479 0.0025 
167 1 -0.0108194 -0.0295398 0.0104904 0 0 0 0.14189 -0.138227 -0.259291 0 0 -0.00160516 32.6666 -24.5543 -6.59955 0.0025 
320 1 0.00725332 -0.0292103 0.0133166 0 0 0 -0.404193 0.583719 -0.24783 0 0 -0.00160516 24.2877 16.544 12.2588 0.0025 
314 1 -0.0294752 -0.028166 0.0103141 0 0 0 -0.649279 -0.258405 -0.358126 0 0 -0.00160516 4.04003 12.4387 65.8855 0.0025 
265 1 -0.0137668 -0.0245002 0.00826799 0 0 0 -0.047823 0.288649 -0.187368 0.00142996 -0.000564431 -0.00225884 0.696301 -28.5112 47.956 0.0025 
291 1 -0.00419542 -0.0295458 0.0110342 0 0 0 0.150674 -0.223971 0.00244569 0 0 -0.00160516 -50.062 73.531 -46.8974 0.0025 
194 1 0.0216217 -0.0281704 0.00924212 0 0 0 -0.153321 -0.0110979 0.190982 0 0 -0.00160516 30.4225 -1.86223 27.7017 0.0025 
223 1 0.0384651 -0.0250436 0.0117727 0 0 0 -0.575378 -0.119116 -0.455479 0.114886 -0.106146 0.141758 -8.46276 -14.658 -71.0089 0.0025 
296 1 -0.0344545 -0.0241231 0.00965542 0 0 0 -0.0441748 0.367045 -0.310881 0 0 -0.00160516 3.23366 -49.7352 22.4373 0.0025 
394 1 -0.0232094 -0.0241642 0.0109659 0 0 0 -0.0959371 -0.403662 -0.420823 0 0 -0.00160516 39.7472 -48.7799 -12.9749 0.0025 
182 1 -0.0180674 -0.0230288 0.0103444 0 0 0 -0.0144002 -0.372961 -0.0895956 -0.00142996 0.000564431 -0.000951476 38.6808 -36.5459 -29.0844 0.0025 
76 1 0.00577318 -0.0233428 0.0110734 0 0 0 0.0874961 -0.0689769 -0.414407 0 0 -0.00160516 -15.2628 54.1181 -15.355 0.0025 
374 1 -0.00912578 -0.0227747 0.0112677 0 0 0 -0.0671324 0.115972 0.155958 0 0 -0.00160516 119.846 -68.1643 57.8546 0.0025 
334 1 -0.00325059 -0.0193842 0.0106425 0 0 0 -0.183486 -0.157898 -0.37314 0.0710693 -0.142477 0.0931906 122.658 42.3809 -0.979893 0.0025 
12 1 0.00231704 -0.0183778 0.0135638 0 0 0 0.186224 0.115131 0.365232 0.00760688 0.0322168 -0.00247637 -58.1141 -31.509 -5.46666 0.0025 
219 1 0.0111279 -0.0198573 0.0123534 0 0 0 -0.181479 0.0392803 -0.365708 0 0 -0.00160516 27.8792 36.9554 -71.737 0.0025 
304 1 0.0226742 -0.017746 0.013805 0 0 0 0.324516 0.010875 -0.238801 0 0 -0.00160516 44.9325 -12.6894 -23.8584 0.0025 
404 1 -0.0322098 -0.0174072 0.00788521 0 0 0 -0.24258 -0.354903 -0.613527 0 0 -0.00160516 22.2367 -15.9442 -3.04346 0.0025 
23 1 -0.0112393 -0.0149738 0.0122761 0 0 0 -0.279451 0.0666031 -0.381607 0 0 -0.00160516 7.77482 -132.322 -24.5251 0.0025 
379 1 0.0191148 -0.0123769 0.0108538 0 0 0 -0.227313 0.26782 -0.257561 -0.0755092 -0.00283642 -0.0176477 -70.6728 -6.39746 -5.59228 0.0025 
149 1 0.0261741 -0.0185505 0.00943319 0 0 0 0.0365453 -0.654834 -0.204277 0 0 -0.00160516 21.9933 43.9097 -26.0801 0.0025 
450 1 0.0348319 -0.0171138 0.0107572 0 0 0 0.305923 -0.0986095 -0.492053 0 0 -0.00160516 -13.3631 42.2602 35.3877 0.0025 
282 1 0.039488 -0.0170667 0.00841061 0 0 0 0.155826 -0.297831 0.144766 0 0 -0.00160516 -51.5532 8.20441 77.2327 0.0025 
211 1 -0.0350355 -0.0146639 0.0125607 0 0 0 0.483031 -0.391183 -0.161556 0 0 -0.00160516 -42.8091 10.7355 -60.1781 0.0025 
382 1 -0.0290135 -0.0146519 0.0112576 0 0 0 -0.645931 0.185413 -0.118035 0.00126886 -0.00623922 0.00300031 24.841 -50.6834 27.1842 0.0025 
442 1 -0.00191599 -0.013162 0.0123372 0 0 0 0.329568 -0.306355 -0.18278 0 0 -0.00160516 -35.266 -51.4519 -43.448 0.0025 
273 1 0.00990645 -0.0145458 0.00857485 0 0 0 0.0263308 -0.00377927 -0.0486514 0.0902364 -0.15679 -0.231573 4.14184 7.33675 45.5228 0.0025 
269 1 0.0131423 -0.01193 0.0112736 0 0 0 -0.384945 -0.462439 -0.31024 0.0283371 0.0134008 0.129158 27.7061 -19.0031 -16.9978 0.0025 
337 1 0.0302018 -0.0143491 0.00980115 0 0 0 -0.0611319 -0.447324 -0.12685 0 0 -0.00160516 37.6636 -71.522 -8.84157 0.0025 
289 1 0.0460635 -0.0100711 0.0129907 0 0 0 0.385217 -0.205412 -0.0695537 0 0 -0.00160516 27.9178 4.99496 82.5601 0.0025 
79 1 0.00307496 -0.00970554 0.013087 0 0 0 0.36255 0.260332 -0.33131 0 0 -0.00160516 -1.3155 47.4182 -40.218 0.0025 
47 1 0.039866 -0.00848702 0.00904879 0 0 0 0.196159 -0.290275 -0.917657 0 0 -0.00160516 -52.0088 -6.67709 -18.0435 0.0025 
312 1 -0.0339981 -0.0079609 0.0105077 0 0 0 0.0105274 -0.344276 -0.217337 0 0 -0.00160516 -17.4367 38.9201 -8.27272 0.0025 
198 1 0.0200861 -0.00338113 0.00937171 0 0 0 0.377792 0.300526 -0.0494255 0.193268 0.086626 -0.0925217 -4.89973 -14.9659 -13.0632 0.0025 
254 1 0.024683 -0.00623816 0.00843292 0 0 0 -0.00189652 0.135063 0.303971 0 0 -0.00160516 -45.6044 -2.67541 -28.5242 0.0025 
99 1 0.0465866 -0.00395979 0.0125095 0 0 0 -0.240061 0.709675 -0.195727 0 0 -0.00160516 -56.083 -40.5192 15.8899 0.0025 
94 1 -0.0298776 -0.00093662 0.0131284 0 0 0 -0.0183847 0.0392996 -0.165532 0 0 -0.00160516 18.786 -10.6683 -14.6223 0.0025 
1337 1 -0.0211179 -0.000769102 0.0117908 0 0 0 -0.299902 0.32563 0.079619 0 0 -0.00160516 -57.0554 -43.1667 45.411 0.0025 
971 1 0.0158818 -0.00510784 0.0111087 0 0 0 0.204613 0.525133 -0.215819 -0.193268 -0.086626 0.0893114 -25.5038 -62.511 -73.5021 0.0025 
1040 1 0.02095 -0.00100898 0.0141674 0 0 0 -0.0337378 0.0691339 0.571747 0.169987 -0.0147528 -0.0633072 89.8006 -164.88 3.95941 0.0025 
1025 1 0.0340017 -0.00115747 0.0123123 0 0 0 -0.201078 -0.210966 0.291275 0 0 -0.00160516 43.6478 -84.5911 13.7001 0.0025 
116 1 0.00563835 -0.0440567 0.0188189 0 0 0 0.0533179 0.282512 0.188258 0 0 -0.00160516 36.8614 9.15666 6.98969 0.0025 
247 1 0.0113413 -0.0421524 0.0140473 0 0 0 -0.313343 0.174388 -0.278744 0.0299156 0.063469 0.163731 18.9536 -43.8914 -19.6475 0.0025 
82 1 -0.0242695 -0.036474 0.0140811 0 0 0 0.0847322 -0.497915 -0.339987 0 0 -0.00160516 43.5175 -32.8866 -69.1805 0.0025 
212 1 0.015673 -0.0402188 0.0157671 0 0 0 0.37059 -0.194968 0.0961681 0 0 -0.00160516 58.7913 -40.0443 -39.2683 0.0025 
411 1 -0.0198808 -0.0365475 0.00935689 0 0 0 -0.276244 -0.531684 -0.400949 -0.000267896 -0.000485348 -0.00124152 8.59204 -13.6061 -10.6204 0.0025 
88 1 -0.0109493 -0.0356266 0.0168042 0 0 0 -0.165732 -0.230766 -0.0491839 0 0 -0.00160516 13.9598 -35.0311 -11.9964 0.0025 
86 1 -0.00638872 -0.0335889 0.0144572 0 0 0 -0.372428 -0.340222 0.291841 0 0 -0.00160516 51.5722 25.5576 20.5171 0.0025 
8 1 -0.0160883 -0.0291335 0.0111519 0 0 0 0.265226 0.542338 0.103536 0 0 -0.00160516 -67.8679 22.6877 63.9346 0.0025 
395 1 -0.0134306 -0.0325134 0.0137739 0 0 0 -0.214745 -0.300471 -0.353847 0 0 -0.00160516 -17.4572 -25.5065 2.9465 0.0025 
115 1 0.00290048 -0.0313166 0.0117424 0 0 0 -0.126824 0.393548 0.432446 0.0175156 0.0845525 0.342919 -32.5695 10.2197 0.976387 0.0025 
53 1 0.0172505 -0.0314424 0.0120064 0 0 0 -0.168104 -0.141862 -0.780366 0 0 -0.00160516 41.5663 -29.0603 -31.0067 0.0025 
62 1 0.0244995 -0.0315528 0.01377 0 0 0 0.377235 -0.00306833 0.0142112 0 0 -0.00160516 -26.2294 1.69034 -38.7627 0.0025 
133 1 -0.0282997 -0.0261131 0.0167898 0 0 0 -0.403475 0.0139855 0.256371 0 0 -0.00160516 -10.6362 10.2376 26.9128 0.0025 
260 1 -0.0376145 -0.0279145 0.014131 0 0 0 0.0948443 -0.409359 -0.1917 0 0 -0.00160516 2.61199 -4.45019 13.0336 0.0025 
165 1 -0.00550792 -0.0246456 0.0144463 0 0 0 -0.223927 0.15016 0.169425 0 0 -0.00160516 -0.0952014 44.9445 11.5688 0.0025 
68 1 0.000819758 -0.0243275 0.011702 0 0 0 -0.147169 -0.235561 -0.450751 0 0 -0.00160516 -74.1248 9.87303 -7.04729 0.0025 
215 1 0.0202976 -0.0219333 0.011676 0 0 0 -0.011376 0.141193 -0.112475 0 0 -0.00160516 -6.70695 27.4105 -17.1811 0.0025 
44 1 0.0299288 -0.0228913 0.0115263 0 0 0 -0.18828 0.310223 -0.13101 -0.00589586 0.0191254 -0.0475502 4.60022 -31.2862 44.579 0.0025 
187 1 -0.0262473 -0.0192607 0.0114949 0 0 0 -0.294324 -0.0185835 -0.311624 0.00682437 -0.0006565 -0.00703839 31.9133 -56 -0.361357 0.0025 