ITEM: TIMESTEP
9600
ITEM: NUMBER OF ATOMS
1800
ITEM: BOX BOUNDS mm mm mm
-0.05 0.05
-0.05 0.05
0 0.15
ITEM: ATOMS id type x y z ix iy iz vx vy vz fx fy fz omegax omegay omegaz radius 
255 1 -0.00354763 -0.0469982 0.00298344 0 0 0 -0.0617115 0.122962 0.196964 0 0 -0.00160516 -34.19 4.7582 -59.2053 0.0025 
241 1 0.00752542 -0.0466228 0.00258531 0 0 0 0.171246 -0.0800831 -0.345938 0.0177696 -0.0906564 -0.143732 9.33928 13.2282 -26.166 0.0025 
150 1 0.00278534 -0.0449744 0.00256548 0 0 0 0.0137832 -0.0924388 -0.115216 0.108035 -0.0617519 -0.0184666 55.4219 -25.4001 -14.1897 0.0025 
409 1 0.0197313 -0.0427286 0.00257165 0 0 0 0.166164 0.475309 0.462539 0.0255099 -0.0769271 -0.00585554 -77.7535 -55.9549 -37.4949 0.0025 
413 1 -0.025678 -0.0396054 0.00245723 0 0 0 0.222629 -0.0990732 -0.138519 -0.117314 0.0544894 -0.127519 -5.3997 31.6383 11.7931 0.0025 
37 1 -0.0200413 -0.0427782 0.00240878 0 0 0 0.22826 0.263786 -0.158837 -0.0351804 -0.0323753 0.131068 -22.9724 -13.4346 -111.192 0.0025 
18 1 -0.00975883 -0.041687 0.00292257 0 0 0 -0.104594 0.270978 -0.113532 -0.00119267 0.0110824 -0.00220326 1.04189 -54.6996 16.0401 0.0025 
141 1 0.00565115 -0.0399999 0.00269427 0 0 0 0.225671 0.0297551 -0.0612231 -0.0090702 -0.176903 0.00155473 67.7414 53.6783 45.794 0.0025 
230 1 0.0104083 -0.0424809 0.00259198 0 0 0 0.0335242 0.232064 -0.0616967 0 0 -0.00160516 -45.4717 27.1408 25.4884 0.0025 
389 1 0.0241047 -0.0404493 0.00299594 0 0 0 -0.00549976 0.412118 0.559271 0.0473721 0.026392 0.000798693 -71.6112 -7.82107 68.8599 0.0025 
103 1 -0.0174856 -0.0384956 0.00263798 0 0 0 0.193826 -0.365475 0.181779 -0.113859 -0.0167308 -0.0026 34.9417 -30.1457 70.9071 0.0025 
438 1 -0.0127489 -0.0371923 0.00255442 0 0 0 -0.0631319 -0.165056 0.179262 0.11824 0.0272549 -0.00696729 21.4274 80.318 -13.4268 0.0025 
218 1 -0.0051897 -0.03945 0.00255747 0 0 0 0.249845 -0.166758 0.192414 -0.207654 0.156353 -0.0420439 -1.77991 59.763 26.8207 0.0025 
85 1 -0.000102784 -0.0374626 0.0033018 0 0 0 -0.00672054 -0.509514 -0.0405389 0 0 -0.00160516 33.0224 5.2834 56.9311 0.0025 
126 1 0.0103733 -0.037097 0.00317269 0 0 0 0.08344 0.141226 -0.240679 -0.0677612 -0.255568 0.0458988 103.331 40.2564 25.9503 0.0025 
101 1 0.015631 -0.0399935 0.00244452 0 0 0 0.340119 0.265633 -0.0303519 -0.0761398 0.0476543 0.0872188 -1.54324 20.9561 18.115 0.0025 
309 1 0.0304654 -0.0363121 0.00249461 0 0 0 0.431097 -0.227981 0.0886665 -7.54822e-05 3.91295e-05 9.52764e-05 10.3079 16.4059 2.7786 0.0025 
244 1 -0.0295173 -0.034862 0.00273055 0 0 0 0.169453 -0.0147886 -0.0984619 0 0 -0.00160516 -28.0343 5.69592 -46.5486 0.0025 
95 1 -0.0217826 -0.034216 0.00293182 0 0 0 -0.132792 0.204667 -0.463028 -0.15753 0.0847049 -0.267159 53.9522 10.965 -14.0615 0.0025 
68 1 0.00150848 -0.0325721 0.00315972 0 0 0 -0.315691 -0.0394897 -0.292851 0 0 -0.00160516 -116.772 80.1423 0.765531 0.0025 
220 1 0.0116194 -0.0324489 0.0025539 0 0 0 -0.026328 0.138777 0.320896 0.0677612 0.255568 -0.0491091 49.395 -48.3534 17.816 0.0025 
134 1 0.0255341 -0.0350928 0.00255113 0 0 0 -0.214501 -0.052655 0.256742 0 0 -0.00160516 54.0608 43.3064 13.4169 0.0025 
369 1 0.0340843 -0.0323202 0.00276119 0 0 0 -0.14155 0.0229149 0.00139541 0.00156874 0.002225 -0.00631003 17.1288 25.8659 11.9486 0.0025 
10 1 -0.0352186 -0.0317047 0.00275903 0 0 0 0.0399705 -0.127606 0.11567 0 0 -0.00160516 -47.4263 32.4368 -25.7188 0.0025 
266 1 -0.03083 -0.0292783 0.00239527 0 0 0 0.118852 0.0911285 0.10906 -0.00802137 -0.0076574 0.220186 -0.130291 9.69619 37.4513 0.0025 
378 1 -0.0118951 -0.0318864 0.00290168 0 0 0 -0.159506 0.0323604 0.558682 0.218079 -0.127654 -0.0577766 -38.2951 -82.3887 23.0663 0.0025 
30 1 0.00763765 -0.0292105 0.00276058 0 0 0 -0.135355 -0.116126 0.00369581 0 0 -0.00160516 32.0805 20.1723 -4.28684 0.0025 
440 1 0.0164514 -0.0298319 0.00269237 0 0 0 0.0470208 0.00706518 0.28099 0.0244143 -0.0140575 -0.0473841 -1.38429 17.8861 -58.3181 0.0025 
66 1 0.0289915 -0.0314322 0.00324535 0 0 0 -0.0387873 0.123041 -0.179291 0.0250173 -0.0687744 -0.0428102 26.9721 46.8476 24.5819 0.0025 
205 1 0.0376281 -0.028738 0.00256409 0 0 0 -0.209835 0.426577 -0.0933199 -0.00292775 -0.163043 0.0098258 -11.0923 0.40121 2.38772 0.0025 
296 1 -0.0398735 -0.0250691 0.00266952 0 0 0 -0.502659 -0.0844392 -0.156833 0 0 -0.00160516 -58.3886 55.4162 -40.0846 0.0025 
306 1 -0.0352421 -0.0265757 0.00443007 0 0 0 -0.361087 0.218155 0.0776981 0.000864674 -0.00549556 -0.00894697 78.2481 73.4137 -22.8737 0.0025 
195 1 -0.0249688 -0.0251173 0.00328564 0 0 0 0.133938 -0.0715715 -0.181562 0 0 -0.00160516 60.4762 -5.22214 -18.1579 0.0025 
434 1 -0.0178944 -0.028133 0.00274018 0 0 0 0.175825 0.294137 0.0741118 0.0539922 0.0757559 -0.226603 -24.6039 10.1879 -19.7435 0.0025 
286 1 -0.00710024 -0.0257897 0.00282114 0 0 0 -0.106352 0.523402 -0.320062 -7.31818e-05 0.000715557 -0.00232395 0.765424 0.42554 12.6406 0.0025 
225 1 0.00231518 -0.0271925 0.00242443 0 0 0 -0.312362 -0.0884062 -0.229132 -0.0336966 0.0629115 0.00829611 -29.0715 -45.8597 -21.2122 0.0025 
346 1 0.0118747 -0.0264123 0.00246739 0 0 0 -0.356659 0.160608 0.0550681 -0.162917 -0.146184 0.0385942 -6.63754 25.4752 -11.0647 0.0025 
285 1 0.0293048 -0.0265905 0.00244193 0 0 0 0.167412 0.246079 0.124016 -0.0718822 0.0953499 0.0399532 -40.9422 9.87263 29.3132 0.0025 
365 1 -0.0308634 -0.0232005 0.00312663 0 0 0 0.13798 -0.1598 0.135278 -0.0840355 0.125363 -0.130851 -14.8634 33.0372 41.3367 0.0025 
421 1 -0.0147917 -0.0231309 0.00303256 0 0 0 0.0967405 -0.399298 -0.0295275 -0.00372841 0.0056126 -0.00329273 28.3548 23.0352 56.0957 0.0025 
87 1 0.000327489 -0.0220397 0.00285128 0 0 0 -0.212167 -0.0762333 0.0333978 0 0 -0.00160516 -89.6705 -62.4781 -11.197 0.0025 
32 1 0.00668477 -0.0234929 0.00259617 0 0 0 -0.0845503 -0.0675983 0.363835 0 0 -0.00160516 26.7879 -30.151 -34.024 0.0025 
75 1 0.0125724 -0.0215387 0.0027034 0 0 0 0.148434 0.280866 0.19901 0.00820616 0.0860563 0.0010889 -4.42828 39.9489 36.42 0.0025 
424 1 0.0165194 -0.0248741 0.0024475 0 0 0 -0.422984 -0.389023 0.109383 0.161794 0.0971372 0.0697602 -18.5335 59.915 -6.16665 0.0025 
159 1 0.0218648 -0.0221588 0.0025562 0 0 0 0.0430936 0.0307024 0.277025 0 0 -0.00160516 65.3094 -31.0458 41.3575 0.0025 
44 1 0.0378859 -0.0238504 0.00239744 0 0 0 -0.0406169 -0.283351 0.503039 0.152755 0.25521 0.122748 63.1887 -13.8815 87.0942 0.0025 
58 1 -0.0427571 -0.0203791 0.00242854 0 0 0 -0.0872793 -0.111015 0.0374311 0.06529 -0.140517 0.11194 -44.5029 -21.7566 -43.195 0.0025 
404 1 -0.0359964 -0.0213402 0.00290176 0 0 0 0.0134535 0.119828 -0.123479 0 0 -0.00160516 -5.06914 -61.3431 -30.0754 0.0025 
15 1 -0.0210124 -0.021672 0.0030695 0 0 0 -0.153666 0.146058 -0.297947 -0.0488542 0.00419989 -0.0725367 72.9214 -50.6424 -33.3142 0.0025 
433 1 -0.00983501 -0.0203373 0.00245575 0 0 0 0.563003 -0.163859 -0.124684 -0.00306569 0.000867933 0.0621186 -12.9056 -51.9515 14.9629 0.0025 
334 1 -0.00481813 -0.0212739 0.00248257 0 0 0 0.0896635 -0.2341 0.354695 -0.000103695 0.000505347 0.00871237 9.61196 18.6859 -61.0943 0.0025 
273 1 0.0080472 -0.0183117 0.002443 0 0 0 -0.0880409 -0.463392 0.210094 0.0569281 0.0236974 0.00662972 41.3373 -17.3731 52.4239 0.0025 
366 1 0.0168969 -0.0189619 0.0025158 0 0 0 0.430493 -0.00912757 0.0317789 -0.0296495 -0.0744502 -0.0028768 17.8151 6.79328 21.7088 0.0025 
149 1 0.0278518 -0.0218125 0.00315883 0 0 0 0.221867 -0.450911 -0.0961515 0.00574178 0.00814729 -0.00604712 78.5742 29.5956 127.748 0.0025 
448 1 0.034492 -0.019249 0.00249885 0 0 0 -0.576325 -0.0966135 0.368764 0.000114265 2.03648e-05 -0.00392647 -0.423159 -11.3232 -14.7331 0.0025 
339 1 0.0434795 -0.0192907 0.00357413 0 0 0 0.169395 0.0248257 -0.101541 -0.107791 0.0455365 0.00385811 -40.5081 18.9178 -20.9961 0.0025 
231 1 -0.0447861 -0.0159311 0.00244425 0 0 0 0.0360724 0.197307 -0.0300758 -0.0400716 0.162425 0.0824649 -38.3276 -31.1029 29.2607 0.0025 
121 1 -0.0378348 -0.0161633 0.00244763 0 0 0 -0.0152991 -0.313129 0.306161 -0.103917 0.0283113 0.0632271 33.0414 -64.1949 -18.9764 0.0025 
9 1 -0.0330256 -0.0171783 0.00268412 0 0 0 0.00391637 0.167618 0.215784 0.101903 -0.0252266 0.00724702 -36.9415 12.5113 132.815 0.0025 
445 1 -0.0276636 -0.0158224 0.00263997 0 0 0 -0.164966 0.114254 0.214991 -0.0466585 0.00593907 -0.0318933 -31.4486 -66.7496 28.3186 0.0025 
380 1 -0.0185042 -0.0173013 0.00250875 0 0 0 0.173221 -0.0790295 -0.0830669 0 0 -0.00160516 -23.85 -108.122 5.00022 0.0025 
158 1 -0.0115801 -0.0147837 0.00267635 0 0 0 0.36376 0.259221 0.0898433 0 0 -0.00160516 -23.8345 21.0829 -11.9803 0.0025 
40 1 -0.00633244 -0.0160908 0.00290001 0 0 0 -0.0995752 -0.265691 -0.140117 -0.113969 0.241478 -0.385313 -58.2225 -13.5497 22.1924 0.0025 
405 1 0.00380169 -0.0154713 0.00300308 0 0 0 0.000787883 -0.0318197 0.108756 0 0 -0.00160516 -5.36884 4.82647 6.42914 0.0025 
142 1 0.018491 -0.014294 0.00258243 0 0 0 -0.107671 0.265477 0.021127 -0.0269669 -0.00369493 -0.00350736 -13.0768 -8.4209 13.1893 0.0025 
2 1 0.0240796 -0.0171937 0.00263959 0 0 0 -0.0037519 -0.208509 0.0527231 0 0 -0.00160516 18.4808 9.75211 -10.0931 0.0025 
20 1 0.0294664 -0.0170735 0.00245427 0 0 0 0.327786 -0.0786026 0.202142 -0.00289838 0.000966317 0.0594993 -9.06521 9.96956 -70.8868 0.0025 
313 1 0.0349034 -0.0136144 0.00262442 0 0 0 -0.458872 0.223316 0.173895 0 0 -0.00160516 -25.7618 24.3516 5.73803 0.0025 
104 1 0.0450852 -0.0140177 0.00323918 0 0 0 -0.189931 -0.195047 0.182255 0.000766014 0.00406839 -0.0190294 3.79686 -6.39261 0.800851 0.0025 
74 1 -0.0411908 -0.0122135 0.00252185 0 0 0 -0.0600151 0.0894725 -0.208472 0 0 -0.00160516 -31.3643 -61.6555 -55.5441 0.0025 
449 1 -0.0349013 -0.0120569 0.00287843 0 0 0 -0.357496 -0.169466 -0.237678 0 0 -0.00160516 -13.8029 -17.354 -20.3764 0.0025 
331 1 -0.021416 -0.0125884 0.00264056 0 0 0 -0.333049 0.125014 -0.114011 -0.00584978 0.0063792 -0.176368 93.1821 24.4841 -42.5199 0.0025 
226 1 -0.00677489 -0.0109413 0.00254416 0 0 0 -0.00897665 0.0334376 -0.0979768 0 0 -0.00160516 -14.8884 -45.4308 27.7567 0.0025 
22 1 -3.5247e-05 -0.0117282 0.00302846 0 0 0 -0.14567 0.50463 -0.246979 0 0 -0.00160516 42.7585 8.13463 -26.321 0.0025 
240 1 0.00477916 -0.0102325 0.00255684 0 0 0 -0.112229 0.0268411 0.116896 -0.00161152 -0.119117 -0.00365569 -38.3633 6.48882 -31.5077 0.0025 
7 1 0.0086845 -0.0133492 0.00277181 0 0 0 -0.0330726 0.320582 -0.157698 0 0 -0.00160516 -48.12 -11.6788 -40.1567 0.0025 
196 1 -0.0463282 -0.010269 0.00316962 0 0 0 0.300791 0.418057 -0.0437753 -0.0271853 0.0468165 -0.0869087 26.5459 -115.466 7.92655 0.0025 
238 1 -0.0405542 -0.0071463 0.00269444 0 0 0 -0.00219443 -0.118951 -0.126663 0 0 -0.00160516 19.9369 -37.5582 -20.3811 0.0025 
36 1 -0.0303997 -0.00965861 0.0023882 0 0 0 -0.032815 -0.400261 0.257116 -0.00169768 0.0142776 0.208425 26.8417 -33.314 -16.6263 0.0025 
49 1 -0.0240999 -0.00694903 0.00241307 0 0 0 -0.0202145 -0.309974 -0.0447267 -0.21757 -0.0282687 -0.210286 -0.994635 43.1878 -73.5827 0.0025 
252 1 -0.0180112 -0.00768293 0.00258259 0 0 0 -0.208503 -0.622843 -0.118296 0.170835 -0.270739 0.0188696 22.0284 9.07427 -15.3639 0.0025 
117 1 -0.0129679 -0.00981966 0.00286403 0 0 0 -0.0376056 0.11388 -0.302589 -0.0451833 -0.109231 -0.00292213 -14.8887 5.92115 15.5463 0.0025 
24 1 0.00940944 -0.00819047 0.00248202 0 0 0 -0.174597 0.147995 0.559892 0.0585655 -0.133904 -0.173686 -7.07798 -21.3557 -61.2083 0.0025 
233 1 0.0160689 -0.00970114 0.00271446 0 0 0 0.067596 -0.253964 0.10458 0 0 -0.00160516 33.232 41.8155 -11.522 0.0025 
338 1 0.0215656 -0.0104471 0.00266498 0 0 0 0.537641 -0.338281 -0.364296 0.0834445 0.0511992 -0.0371088 -3.6523 32.6344 2.71069 0.0025 
92 1 0.0302573 -0.00678868 0.00320145 0 0 0 0.05948 0.467595 -0.365576 0.00169522 0.00587822 -0.00284877 1.63809 -11.0201 -19.8696 0.0025 
237 1 0.036196 -0.00736503 0.00241074 0 0 0 0.154231 -0.135006 0.289127 -0.00745701 -0.00427676 0.142233 17.477 39.0967 47.3416 0.0025 
426 1 0.0406005 -0.0113286 0.00267329 0 0 0 0.299818 -0.122814 -0.0962259 0 0 -0.00160516 8.78463 9.86932 4.89514 0.0025 
362 1 0.0451319 -0.00892203 0.00240383 0 0 0 -0.243054 0.0476401 -0.271829 0.0443363 -0.034285 0.175919 -9.83507 9.6681 -23.0071 0.0025 
292 1 -0.0472527 -0.00509408 0.00249603 0 0 0 -0.113715 -0.313734 0.231253 -0.0304077 -0.0939655 -0.194926 19.2105 -12.778 47.5009 0.0025 
949 1 -0.0359869 -0.00414337 0.0025083 0 0 0 0.031802 0.296508 -0.363859 0.00461924 -0.012797 -0.00698491 -38.3488 -46.9983 -49.6833 0.0025 
367 1 -0.0302755 -0.00455688 0.00254706 0 0 0 -0.0868066 0.00969641 -0.0592434 -0.00934263 0.00522263 -0.0148333 41.2744 -49.7127 -44.1859 0.0025 
61 1 -0.00585382 -0.00534701 0.00242566 0 0 0 -0.175933 0.122088 -0.193 0.00223036 -0.0065226 0.136263 30.4015 -44.0523 17.4059 0.0025 
347 1 -0.000885245 -0.00679704 0.00261925 0 0 0 0.206904 0.00461534 0.00290717 -0.0041881 0.00237654 -0.00685224 2.27819 -26.6102 -41.1804 0.0025 
202 1 0.0049051 -0.00532347 0.00240331 0 0 0 -0.0677509 0.0994966 -0.0389621 0.0104485 0.114474 0.200095 -10.5618 -0.521277 22.9775 0.0025 
80 1 0.0178867 -0.00399039 0.00245956 0 0 0 0.0461831 -0.132298 0.361434 0.00112931 -0.00343702 0.0451663 11.1122 2.58488 9.40288 0.0025 
1046 1 0.0247731 -0.00528814 0.00267859 0 0 0 0.53975 -0.516866 -0.356157 0.0057639 0.0496347 -0.0603078 -66.435 12.0654 41.3266 0.0025 
305 1 0.0473249 -0.00388492 0.00260457 0 0 0 -0.0066732 0.300048 0.141359 0 0 -0.00160516 -59.5603 57.3399 5.4327 0.0025 
945 1 -0.0428484 -0.00235982 0.0024293 0 0 0 -0.265603 -0.15263 0.31909 0.00394745 0.00438908 0.116457 29.5377 -78.7315 -3.59928 0.0025 
1647 1 -0.0356471 -0.00333987 0.0201021 0 0 0 0.138044 -0.847379 0.0221321 0 0 -0.00160516 21.4814 74.8468 5.42351 0.0025 
342 1 -0.0250584 -0.00179069 0.00254521 0 0 0 -0.085462 0.0147994 0.19449 -0.208763 -0.190251 -0.0938563 -22.7929 -21.6862 -14.6001 0.0025 
1337 1 -0.0204736 -0.00352722 0.00247406 0 0 0 -0.106724 -0.350485 0.182047 -0.0309272 0.234431 0.000610039 24.0259 30.2773 -25.8115 0.0025 
1127 1 -0.0151289 -0.00186607 0.00248911 0 0 0 0.130026 0.120857 -0.459284 -0.000274025 -0.000597691 0.0115451 90.3527 -11.5176 37.3861 0.0025 
251 1 -0.00960327 -0.000380042 0.00256818 0 0 0 0.0154595 -0.115652 0.117804 0.00216209 -0.00341757 -0.00243474 -2.55668 -16.7191 -9.19745 0.0025 
1651 1 -0.0138154 -0.00010965 0.0308604 0 0 0 -0.0376543 0.433957 0.237579 -0.0881527 -0.0248306 0.0837972 -21.6793 54.3869 -29.7022 0.0025 
154 1 0.0111495 -0.00240579 0.00263035 0 0 0 -0.289023 -0.207616 -0.208887 -0.00164481 -0.0619734 -0.00896442 43.3763 1.57173 -19.6508 0.0025 
368 1 0.0319302 -0.00182766 0.00262073 0 0 0 -0.017648 -0.17927 -0.102091 0.00829283 -0.0295203 -0.00341839 -22.9341 20.3362 -32.1781 0.0025 
425 1 0.0382302 -0.0013096 0.00301662 0 0 0 0.0370841 -0.288506 0.186712 0.191352 -0.0500543 -0.215399 -35.9788 89.5906 12.7017 0.0025 
217 1 -0.0152945 -0.0445133 0.00277873 0 0 0 0.405243 0.0180306 -0.377333 0 0 -0.00160516 -7.32473 2.76112 5.74205 0.0025 
410 1 -0.00912574 -0.0466004 0.00341461 0 0 0 -0.102559 -0.166083 -0.131256 0.00119267 -0.0110824 -0.00100705 31.4909 21.3187 -35.9191 0.0025 
257 1 0.00677198 -0.0440033 0.0066447 0 0 0 -0.283676 -0.108115 -0.207445 0.153494 -0.113078 0.114997 47.5047 43.626 18.9617 0.0025 
279 1 0.0153188 -0.0449275 0.00361056 0 0 0 -0.0749222 0.13585 0.156066 0 0 -0.00160516 -25.9063 11.8748 -18.4918 0.0025 
354 1 -0.00500546 -0.0415645 0.00762866 0 0 0 -0.166575 0.021661 -0.433352 -0.0522274 -0.0399205 -0.0370904 -33.6316 21.2284 -6.2728 0.0025 
28 1 -0.00136216 -0.0423881 0.00306714 0 0 0 0.502676 -0.295305 -0.172277 0.0996192 -0.0946016 0.055695 38.9577 5.23098 10.8193 0.0025 
377 1 0.00267176 -0.0413729 0.00683284 0 0 0 -0.310654 -0.0352358 -0.0477477 -0.170615 0.114171 -0.00318856 -20.8663 -0.264612 -45.2473 0.0025 
373 1 0.00703984 -0.0393075 0.00810325 0 0 0 0.109919 0.049568 0.10297 -0.00179459 0.0878443 0.0216674 43.5791 -3.39038 -3.20908 0.0025 
332 1 0.0219084 -0.036615 0.00655079 0 0 0 -0.434929 -0.370152 -0.155349 0 0 -0.00160516 -76.133 -41.841 -85.4594 0.0025 
186 1 0.0267573 -0.0386413 0.00686734 0 0 0 -0.213212 0.252006 0.0933292 -0.0188985 -0.143064 -0.00694686 17.8868 1.97599 -35.7605 0.0025 
81 1 -0.0165164 -0.0334046 0.00268477 0 0 0 -0.283905 -0.0578619 -0.411057 -0.210328 -0.0674676 -0.00568653 10.7781 -35.0217 -29.2743 0.0025 
8 1 -0.014938 -0.0335794 0.00741104 0 0 0 -0.219157 -0.294175 -0.12764 0.00178599 7.86564e-05 0.00360647 -60.4328 41.0306 -47.9004 0.0025 
167 1 -0.00828352 -0.0357334 0.00430978 0 0 0 0.0427933 -0.0107544 0.00478609 -0.0705042 -0.0336481 -0.00592742 37.7544 20.4566 0.658169 0.0025 
295 1 -0.00443535 -0.0331536 0.00258752 0 0 0 0.100031 -0.868058 0.16454 0.0518766 0.0389139 -0.0261412 -87.6528 -8.29264 5.75106 0.0025 
70 1 0.0031352 -0.0361596 0.00740954 0 0 0 -0.0412584 -0.0621916 0.132769 0 0 -0.00160516 7.24937 -18.6197 -3.12547 0.0025 
268 1 0.00577449 -0.035123 0.00239853 0 0 0 -0.470622 -0.031351 -0.792078 0.0205921 0.177473 0.225954 10.3857 -21.7202 3.99854 0.0025 
234 1 0.0162504 -0.0342341 0.00499066 0 0 0 -0.0452546 -0.0404053 -0.302039 -0.0561072 0.0268698 -0.1128 22.5396 18.7202 52.1986 0.0025 
213 1 0.0208065 -0.0328757 0.00269536 0 0 0 -0.102834 -0.26652 0.369726 -0.164237 -0.101555 -0.126755 19.5329 25.7375 25.3978 0.0025 
280 1 0.0326497 -0.0341362 0.00718413 0 0 0 -0.110421 1.02036 0.0917758 -0.0674635 -0.0688317 -0.0215892 36.435 -24.6114 -105.86 0.0025 
11 1 -0.0327155 -0.0296388 0.00808684 0 0 0 0.0846631 -0.00567496 0.166084 0.0526801 0.0370727 -0.0634885 -16.416 -30.2824 21.9038 0.0025 
113 1 -0.0250154 -0.0304036 0.00341039 0 0 0 0.160623 -0.0667404 -0.0789984 0 0 -0.00160516 29.7969 20.6061 -78.2346 0.0025 
182 1 -0.0198941 -0.030961 0.00617493 0 0 0 0.0860572 0.108367 0.172518 -0.0740323 -0.090304 0.156241 1.51438 3.09311 -38.087 0.0025 
115 1 -0.00197061 -0.029282 0.00509956 0 0 0 0.400865 0.234683 0.0495394 0.0556109 5.683e-05 -0.0159469 16.6138 -50.233 -9.73518 0.0025 
13 1 0.0243174 -0.0305743 0.00515751 0 0 0 -0.195914 0.0293414 -0.112894 0.160165 0.106242 0.120646 23.5909 -48.0526 -2.288 0.0025 
260 1 -0.0377453 -0.0283802 0.00865608 0 0 0 -0.485705 -0.450464 0.130561 0 0 -0.00160516 52.9918 66.1008 -49.9773 0.0025 
294 1 -0.0290194 -0.0263152 0.00639982 0 0 0 -0.187658 0.147823 0.129431 0.0840355 -0.125363 0.127641 -51.7243 -20.6714 -6.83125 0.0025 
265 1 -0.0119913 -0.0271428 0.00402829 0 0 0 0.149695 0.308393 -0.481917 -0.00580907 0.189431 0.0551236 -83.8232 -37.2736 25.1392 0.0025 
307 1 0.0202432 -0.0275064 0.0055612 0 0 0 -0.162537 0.563899 -0.777096 0 0 -0.00160516 21.765 121.03 -19.2384 0.0025 
132 1 0.0338242 -0.0258222 0.00427029 0 0 0 0.0283593 0.794622 0.187521 -0.0758173 -0.0772273 0.0835283 10.4515 40.7593 3.88093 0.0025 
372 1 -0.0397818 -0.0214203 0.0062722 0 0 0 0.141566 0.0739881 0.0886563 -0.0415108 -0.046156 -0.136496 -32.6053 49.4013 -19.8018 0.0025 
165 1 -0.0085127 -0.0223793 0.00704419 0 0 0 -0.302464 0.132449 -0.362649 0.00723384 0.0153113 -0.00858166 40.5192 -53.6228 2.29151 0.0025 
164 1 -0.0035946 -0.0234664 0.00723917 0 0 0 0.0640069 0.0824452 0.210299 -0.18525 0.128577 -0.133417 18.8148 -48.3292 -27.1202 0.0025 
76 1 0.00341446 -0.0239286 0.00667868 0 0 0 0.378207 0.234509 0.0404675 0.000992862 0.000531251 -0.00244349 37.4769 -22.7762 69.7432 0.0025 
304 1 0.0250219 -0.0254142 0.00511934 0 0 0 -0.121 -0.21439 -0.164771 -0.00574178 -0.00814729 0.00283681 -118.15 35.1861 19.1223 0.0025 
187 1 -0.0266978 -0.0203293 0.00480119 0 0 0 -0.172222 -0.120747 -0.187907 0.0173497 0.00643175 -0.0182928 -66.3045 4.91916 11.4542 0.0025 
163 1 -0.0184214 -0.0219807 0.00724752 0 0 0 -0.0802889 -0.144187 0.458292 0.0466786 0.00147116 0.0489149 36.5714 -2.25664 67.7014 0.0025 
293 1 -0.013981 -0.0183052 0.00557678 0 0 0 -0.113013 0.0736306 -0.0649578 0.0765138 -0.00776183 -0.159397 48.6414 -96.113 -81.7429 0.0025 
52 1 -0.00122289 -0.016575 0.00364187 0 0 0 0.0856927 0.00492175 -0.419673 0 0 -0.00160516 86.2741 2.80005 -26.0046 0.0025 
383 1 0.00496189 -0.0191614 0.00619049 0 0 0 -0.122423 0.059554 -0.255203 -0.0575152 -0.0205982 0.0717279 7.08952 12.7756 -37.1541 0.0025 
269 1 0.0152153 -0.0219498 0.0071995 0 0 0 0.137209 -0.339218 0.209036 0 0 -0.00160516 6.97133 6.50462 16.1413 0.0025 
140 1 0.020428 -0.0180182 0.00605737 0 0 0 0.315448 -0.0494213 0.0715161 0 0 -0.00160516 -58.5101 16.4277 69.0232 0.0025 
282 1 0.0397966 -0.0213315 0.00663913 0 0 0 -0.0482921 -0.225381 -0.255606 -3.16286e-05 -0.000397381 -0.0018873 67.752 26.7215 30.6707 0.0025 
6 1 -0.0234218 -0.016422 0.00511314 0 0 0 0.0704829 0.104039 0.128148 0.0421193 -0.0139619 0.0334631 3.94056 -12.1248 17.4294 0.0025 
23 1 -0.00941406 -0.0161377 0.00709138 0 0 0 -0.0132997 -0.0493111 0.0465734 -0.00101236 0.0203919 -0.0244908 33.2008 27.7803 19.9115 0.0025 
340 1 0.00937606 -0.0168834 0.00703834 0 0 0 0.0248228 -0.0628597 -0.207165 -0.0312192 0.0501389 -0.0654321 -10.1279 10.9462 17.374 0.0025 
356 1 0.0267914 -0.0175349 0.00712782 0 0 0 -0.0985893 -0.0734849 -0.691149 0 0 -0.00160516 -76.2682 28.8087 62.0417 0.0025 
386 1 0.03892 -0.0168462 0.00356738 0 0 0 -0.0354376 -0.0504401 -0.469474 0 0 -0.00160516 21.1212 -4.68287 -12.5848 0.0025 
436 1 -0.0259923 -0.0110716 0.00530561 0 0 0 0.190711 0.339292 -0.143247 0 0 -0.00160516 -12.4506 70.1056 41.999 0.0025 
326 1 -0.0165571 -0.0127766 0.00511694 0 0 0 0.0116955 -0.114087 0.17158 -0.0169933 0.000304339 -0.0236747 -21.8994 27.3568 19.8274 0.0025 
321 1 -0.00398322 -0.0133257 0.00649757 0 0 0 -0.192097 0.186568 0.181903 0.0167396 -0.00438619 -0.0192707 24.0278 -11.3821 4.95908 0.0025 
442 1 0.00134992 -0.0136672 0.00754625 0 0 0 -0.131129 -0.163561 0.129219 0.0736703 0.0843273 -0.0706871 17.0497 -58.1287 102.569 0.0025 
401 1 0.007537 -0.0121825 0.00753137 0 0 0 -0.0562183 0.0513268 0.0620886 0 0 -0.00160516 72.5904 38.303 -98.1054 0.0025 
379 1 0.0134774 -0.0149506 0.00319618 0 0 0 -0.0515216 -0.13441 -0.519973 0 0 -0.00160516 37.5931 -33.8453 -63.2273 0.0025 
337 1 0.0290506 -0.0115634 0.00401014 0 0 0 0.329482 0.697938 -0.481545 -0.00169522 -0.00587822 -0.000361545 -24.4942 35.9302 51.9997 0.0025 
124 1 0.0338985 -0.00993549 0.00606911 0 0 0 0.222138 0.359065 0.501499 0 0 -0.00160516 4.62258 52.5295 -112.895 0.0025 
157 1 -0.0216447 -0.00641038 0.0064975 0 0 0 0.166583 -0.0863218 -0.534645 0.213956 0.0308155 0.377451 9.88819 -2.5157 -47.036 0.0025 
65 1 -0.00373086 -0.00824696 0.0064808 0 0 0 -0.320814 0.103727 -0.391385 0 0 -0.00160516 25.2393 -11.7594 8.87778 0.0025 
38 1 0.00214074 -0.00823127 0.00631577 0 0 0 0.26481 0.344959 -0.0542909 0.0041881 -0.00237654 0.00364193 76.8916 2.48056 -24.6476 0.0025 
384 1 0.0124027 -0.0109745 0.00609907 0 0 0 0.581373 -0.699065 0.308553 -0.0188366 0.00949729 -0.0557788 70.6514 10.2792 -46.1523 0.0025 
971 1 0.0192941 -0.00781599 0.00617951 0 0 0 0.253575 0.396276 0.0765274 -0.0496144 0.0287546 0.0344192 -76.0382 -66.3468 -36.3964 0.0025 
254 1 0.0242281 -0.00832262 0.00653331 0 0 0 0.0489148 0.226164 0.0190571 0.0170224 -0.0514433 0.0597506 -31.8179 -1.88273 4.45357 0.0025 
59 1 0.0388735 -0.0130956 0.00703866 0 0 0 0.0573977 0.0380063 0.0117061 0 0 -0.00160516 -40.1139 -67.9424 39.8615 0.0025 
155 1 -0.0418977 -0.00500341 0.00768363 0 0 0 -0.40918 -0.44645 -0.111474 0.169545 0.014646 0.0602658 49.935 -85.1008 11.5025 0.0025 
419 1 -0.0273637 -0.00593002 0.00633972 0 0 0 0.0308446 -0.0802094 0.0733231 0.00934263 -0.00522263 0.011623 43.7915 -48.7066 -5.35189 0.0025 
278 1 -0.0108663 -0.0053775 0.00294486 0 0 0 -0.065391 -0.043241 -0.378737 0.0451833 0.109231 -0.000288181 -33.3562 -10.7533 76.3649 0.0025 
191 1 0.0136338 -0.00601346 0.00524144 0 0 0 0.0652177 -0.465654 -0.0471707 0 0 -0.00160516 55.9664 -6.87906 42.7199 0.0025 
290 1 0.0365637 -0.00520436 0.00686927 0 0 0 0.0453001 0.0991389 -0.095241 0.100879 -0.0509078 -0.0982809 9.49582 38.72 3.66425 0.0025 
122 1 0.042096 -0.00595179 0.00494632 0 0 0 0.0227887 -0.188869 -0.0327055 -0.0342376 0.033284 0.0238346 6.67287 -65.672 6.33559 0.0025 
250 1 -0.0042573 -0.000121108 0.00248974 0 0 0 -0.175956 -0.20314 0.14486 0.00111968 -0.191791 -0.111119 -51.9995 -74.903 27.1315 0.0025 
42 1 -0.0375641 -0.00231621 0.0072423 0 0 0 0.330671 0.476004 -0.210789 0 0 -0.00160516 10.5922 4.929 -21.7028 0.0025 
21 1 0.00106078 -0.0018802 0.00385268 0 0 0 -0.0931842 -0.139467 -0.137394 0.0119043 -0.0147184 -0.0223823 -57.2945 -30.5417 45.0532 0.0025 
1080 1 0.0140002 -0.00116024 0.00681511 0 0 0 0.203155 0.020278 -0.0561063 -0.0471916 -0.0430972 0.0745605 100.932 -23.5167 27.5152 0.0025 
1179 1 0.0201802 -0.00279554 0.00674135 0 0 0 -0.0833026 -0.0799841 0.236994 -0.109273 -0.0292299 -0.0430885 13.1891 -41.7393 -13.821 0.0025 
408 1 0.0271234 -0.000933033 0.00363839 0 0 0 -0.241402 -0.170771 -0.322896 -0.0125144 -0.0320702 -0.00243518 43.3626 23.0503 -83.3167 0.0025 
93 1 0.0348785 -0.000439049 0.00640366 0 0 0 -0.164259 -0.110662 -0.322803 -0.188854 0.0514287 0.215319 -85.5542 -14.5263 42.38 0.0025 
416 1 -0.00416072 -0.046352 0.00944164 0 0 0 -0.129256 -0.320695 0.0159867 0 0 -0.00160516 1.68668 -5.34328 28.063 0.0025 
189 1 0.00115935 -0.0461657 0.0076403 0 0 0 0.143078 0.320215 -0.190412 0 0 -0.00160516 -35.8319 -26.1752 -58.9061 0.0025 
352 1 -0.014966 -0.0445239 0.0087482 0 0 0 -0.174994 0.00205264 0.0420583 0 0 -0.00160516 -15.3981 -8.43086 27.2928 0.0025 
73 1 -0.00942893 -0.044552 0.00922409 0 0 0 0.076782 0.0973058 0.137629 -0.000429342 -0.0281638 -0.0127759 82.7462 -26.861 22.8182 0.0025 
29 1 0.0104809 -0.0462863 0.00945406 0 0 0 -0.0489837 0.307551 -0.123385 0 0 -0.00160516 -39.1585 -43.3266 -8.71929 0.0025 
243 1 0.0165102 -0.0446315 0.00855498 0 0 0 0.382016 -0.411718 -0.284943 -0.0688525 0.168007 0.00493689 43.5103 58.4729 82.4026 0.0025 
82 1 -0.0232963 -0.040549 0.00659732 0 0 0 -0.0663498 0.0917005 -0.128984 0.114887 -0.0526602 0.185085 15.2403 -26.055 -125.999 0.0025 
411 1 -0.0182644 -0.0412144 0.00674776 0 0 0 0.115496 0.228821 0.150757 0.0235412 0.0160778 0.0575642 -10.7366 -3.18922 31.2781 0.0025 
444 1 -0.0123311 -0.0397202 0.00734419 0 0 0 0.261572 -0.234944 0.207482 -0.000661174 1.49126e-05 -0.00247148 -45.2826 -77.1766 49.4619 0.0025 
417 1 -0.00924179 -0.0400237 0.0112556 0 0 0 0.223859 -0.285719 0.506182 0.00109052 0.0281489 0.0104319 -105.972 -62.9481 -3.4002 0.0025 
60 1 0.0129317 -0.0411773 0.00719806 0 0 0 -0.483981 0.018141 -0.198921 0 0 -0.00160516 -36.9602 -61.2914 51.6037 0.0025 
302 1 0.0212354 -0.0425964 0.00750496 0 0 0 -0.226039 0.207098 -0.0733749 -0.0788851 0.174251 0.00474231 -13.4142 -23.7706 37.1566 0.0025 
102 1 -0.0279995 -0.038202 0.00777923 0 0 0 0.19784 0.258754 -0.0633656 0.0386794 -0.0773816 -0.162327 21.0834 -109.189 58.3373 0.0025 
274 1 -0.00153462 -0.0392019 0.0102175 0 0 0 0.334268 0.607129 -0.0116338 0.0253127 0.0761039 0.00849322 -67.5797 -56.6293 13.3835 0.0025 
388 1 0.0171416 -0.0382707 0.00763824 0 0 0 -0.346525 -0.339727 -0.254487 0.028231 -0.100835 0.0681397 -79.2725 -7.11378 20.0236 0.0025 
78 1 -0.0317851 -0.0347294 0.00757734 0 0 0 0.074321 -0.30825 0.190976 0 0 -0.00160516 -21.9241 -2.14995 59.0233 0.0025 
348 1 -0.0245163 -0.0345988 0.00754381 0 0 0 0.0277356 0.363246 0.147352 0.0348552 -0.0751696 -0.0285329 -43.1719 -88.1151 -26.7022 0.0025 
16 1 -0.0195575 -0.0360042 0.00683156 0 0 0 -0.0223481 -0.512197 0.0823791 0.148648 -0.100442 0.249861 47.558 -59.5599 -58.1972 0.0025 
197 1 -0.00548229 -0.0366417 0.00830022 0 0 0 0.279874 -0.310579 0.207017 0.0179759 0.000502988 0.0277628 12.7959 -17.5358 -59.1746 0.0025 
667 1 -0.000954085 -0.0334007 0.0101142 0 0 0 -0.22221 0.0548106 0.0190055 3.67028e-05 8.50702e-07 -0.00158452 31.6689 62.0265 70.781 0.0025 
170 1 0.00762411 -0.0340973 0.00844136 0 0 0 0.0691522 -0.389696 -0.375041 -0.0359502 0.0129677 0.00360061 -68.5519 18.8238 -10.3289 0.0025 
357 1 0.0123322 -0.0355627 0.0078872 0 0 0 -0.132415 0.150842 -0.0932667 0.0221913 -0.0134165 -0.0246243 17.6388 -2.43349 17.7345 0.0025 
194 1 0.0274555 -0.0338083 0.00728571 0 0 0 0.286024 0.25745 0.385682 -0.00508449 0.100231 0.0694268 -95.561 -57.5884 -126.656 0.0025 
314 1 -0.0267091 -0.0304267 0.00899377 0 0 0 -0.199991 0.0595511 -0.106739 -0.0635063 0.0877858 -0.00302064 43.3559 20.1161 10.2912 0.0025 
291 1 -0.00679265 -0.0294719 0.00617436 0 0 0 -0.0839422 -0.162087 -0.279763 -0.0555378 -0.000772387 0.0134554 83.5255 -5.6289 13.8691 0.0025 
160 1 0.00381024 -0.0289854 0.00673348 0 0 0 -0.0212115 0.202089 -0.496702 0.0390915 -0.0583075 0.130342 14.2356 70.6464 -14.8359 0.0025 
262 1 0.0181345 -0.0312011 0.00839558 0 0 0 0.412027 -0.375222 -0.257132 0.0271421 0.0512195 0.053158 -23.1472 -26.2179 25.2287 0.0025 
215 1 0.0307528 -0.0291919 0.00868643 0 0 0 0.182483 0.398507 0.172584 0.00608441 0.0052862 -0.0108018 -2.50784 -2.10141 63.1705 0.0025 
223 1 0.0361763 -0.0309149 0.00839256 0 0 0 0.167649 0.199743 -0.0456575 -0.0648621 0.171453 0.0296179 -13.4382 30.1626 -72.4675 0.0025 
345 1 -0.0294284 -0.0274382 0.0119457 0 0 0 0.257119 0.211653 0.16177 0.0656316 -0.0296961 -0.0240619 0.534649 -67.5418 39.02 0.0025 
152 1 -0.0165028 -0.0266425 0.00723097 0 0 0 -0.309229 -0.21963 -0.405363 0.211301 0.0203109 0.105553 -41.8345 42.0852 -50.9652 0.0025 
320 1 0.0132878 -0.02982 0.00651362 0 0 0 0.231186 -0.205235 -0.382107 -0.0258881 0.00148108 0.0322064 13.0186 10.9135 -12.0279 0.0025 
26 1 0.0384228 -0.025998 0.00976982 0 0 0 -0.408122 0.0739765 -0.0506185 0 0 -0.00160516 -73.8406 44.0126 32.4015 0.0025 
55 1 -0.0355998 -0.0234194 0.00827418 0 0 0 0.0391401 0.316638 -0.318085 0.0137098 -0.0116873 -0.00631536 -137.849 52.612 -4.68236 0.0025 
382 1 -0.0302033 -0.02137 0.00816078 0 0 0 -0.595322 0.201415 0.196598 -0.0173497 -0.00643175 0.0150825 8.32131 -15.1503 -12.9638 0.0025 
394 1 -0.0213275 -0.0261513 0.00663388 0 0 0 0.0826153 0.14356 -0.270686 -0.182379 0.00997413 -0.0275226 32.8505 -27.4607 -49.5555 0.0025 
374 1 -0.0135798 -0.0225534 0.00895458 0 0 0 0.316092 0.215169 -0.286874 -0.0451149 0.0052787 -0.0949045 14.3803 3.01206 -37.9996 0.0025 
315 1 -0.000136277 -0.02601 0.00950224 0 0 0 0.157322 -0.493703 -0.148536 0.184257 -0.129109 0.131045 22.7937 17.1306 -7.04224 0.0025 