ITEM: TIMESTEP
16000
ITEM: NUMBER OF ATOMS
1800
ITEM: BOX BOUNDS mm mm mm
-0.05 0.05
-0.05 0.05
0 0.15
ITEM: ATOMS id type x y z ix iy iz vx vy vz fx fy fz omegax omegay omegaz radius 
410 1 -0.00793062 -0.0468761 0.00276648 0 0 0 -0.0310424 -0.0253858 -0.103128 0.0107509 0.0569715 0.00107767 -30.6416 13.4822 7.02625 0.0025 
255 1 -0.00127611 -0.0474743 0.0024514 0 0 0 -0.0254174 0.0275434 0.0312901 -0.0103025 -0.00519166 0.0349675 -6.46784 4.72456 -13.8232 0.0025 
150 1 0.00447441 -0.0473029 0.003201 0 0 0 0.117661 -0.052187 0.0846873 -0.00206897 0.0102185 -0.00185113 -14.2699 -1.95619 4.5423 0.0025 
217 1 -0.015951 -0.044071 0.00257172 0 0 0 -0.0283722 0.0073813 0.0855597 0 0 -0.00160516 2.56902 3.89639 -2.60654 0.0025 
218 1 -0.00447121 -0.0431382 0.00254509 0 0 0 0.0728333 0.0139153 -0.112815 0.0307409 -0.000322154 -0.0477235 -9.56621 16.6308 1.8893 0.0025 
28 1 0.00122181 -0.0431524 0.00250021 0 0 0 0.0237399 -0.0229725 -0.07088 0.00157143 0.00304938 -0.00152679 -24.5278 11.7769 3.89673 0.0025 
141 1 0.00640595 -0.0427363 0.00259942 0 0 0 0.204204 -0.0549511 0.00139905 0.000540082 0.00146892 -0.00177057 -10.0063 4.07563 -9.8672 0.0025 
279 1 0.0165549 -0.0443734 0.00255286 0 0 0 0.0987987 0.0755003 -0.0494879 -0.000250151 -0.00329158 -0.00158411 -6.99989 14.4677 -0.126146 0.0025 
413 1 -0.0262603 -0.0395875 0.00255447 0 0 0 -0.00862725 0.00152236 -0.0109933 -0.00775643 -0.0031136 -0.0015696 -0.367296 -8.26312 0.746569 0.0025 
37 1 -0.0212261 -0.0423338 0.00246121 0 0 0 -0.144177 0.0094697 -0.113764 0.000766912 -0.000594302 0.0470329 -1.86228 -6.13481 -10.3262 0.0025 
18 1 -0.0107873 -0.0423765 0.00248605 0 0 0 0.072387 -0.0820272 -0.0266177 -0.000522136 0.000207085 0.00962889 15.8119 -14.0545 11.6534 0.0025 
230 1 0.0117712 -0.0422672 0.00253539 0 0 0 -0.0416283 0.0604329 0.0410433 0 0 -0.00160516 1.69368 -11.0992 4.08128 0.0025 
409 1 0.0211623 -0.0423052 0.00248164 0 0 0 -0.101526 0.034298 0.00686659 -0.0230053 -0.0151316 0.0144382 -4.8086 13.9896 -5.83287 0.0025 
389 1 0.0254823 -0.0398564 0.00244103 0 0 0 0.0962255 -0.0457009 -0.0787053 0.0202881 0.0167364 0.0948676 -15.5932 -2.28129 -19.2191 0.0025 
95 1 -0.0218306 -0.0373069 0.00257142 0 0 0 0.0364369 -0.0207934 0.00129343 0.0093101 0.00539373 -0.0015071 2.33421 3.70553 -15.337 0.0025 
103 1 -0.0171182 -0.0390646 0.00249231 0 0 0 0.0242619 -0.0724159 0.0343471 -0.000145881 0.000141784 0.00246346 12.9243 -6.83262 -0.149402 0.0025 
438 1 -0.0121686 -0.037302 0.00249186 0 0 0 -0.0417486 -0.042148 -0.0483326 0.000234538 0.000134362 0.00380081 4.74433 4.46789 -15.3955 0.0025 
167 1 -0.00712939 -0.0386006 0.00254493 0 0 0 0.0525778 0.0361389 -0.0313989 -0.0028377 -0.00121097 -0.00638819 6.38138 -1.44461 0.668131 0.0025 
85 1 -0.00147542 -0.0389204 0.00258979 0 0 0 0.0318636 0.0548915 -0.050659 0 0 -0.00160516 3.62718 -10.7266 0.885156 0.0025 
268 1 0.00573459 -0.0375711 0.0025143 0 0 0 0.0164471 0.00251987 -0.0376976 0.00748982 0.00219222 -0.0340317 1.16706 -11.9119 11.047 0.0025 
126 1 0.0109205 -0.0368412 0.00272055 0 0 0 -0.00851638 0.0135986 0.115117 0 0 -0.00160516 5.95807 -4.66931 2.94948 0.0025 
101 1 0.0170349 -0.0394079 0.0027484 0 0 0 0.0895184 0.0372867 -0.00173661 0.000250151 0.00329158 -0.0016262 12.4579 5.25147 10.4444 0.0025 
309 1 0.0302827 -0.0364684 0.00253798 0 0 0 0.0107885 0.0692384 0.029215 0 0 -0.00160516 -12.9867 -12.444 5.64534 0.0025 
10 1 -0.0337489 -0.0334416 0.00254581 0 0 0 0.0126582 0.0151246 -0.09333 -0.0112279 -0.0239381 0.000495251 -1.36126 15.4143 5.96583 0.0025 
244 1 -0.0290186 -0.0351542 0.00247841 0 0 0 0.0423123 0.0623675 0.0417312 -0.000517073 -0.00627279 0.0127646 0.516954 -3.0321 -4.79494 0.0025 
182 1 -0.020718 -0.0321826 0.00264052 0 0 0 0.111441 -0.086161 -0.052473 0 0 -0.00160516 -27.3073 -17.8324 -2.23407 0.0025 
81 1 -0.0159935 -0.0338602 0.00251341 0 0 0 -0.0816404 0.0258116 -0.0138526 0 0 -0.00160516 -2.19264 -0.755833 0.95189 0.0025 
291 1 -0.00865654 -0.0334893 0.00255972 0 0 0 0.0236469 -0.0239323 -0.0215403 0 0 -0.00160516 20.7361 -10.585 -9.13445 0.0025 
295 1 -0.00334778 -0.0342168 0.00257836 0 0 0 -0.0364435 -0.00210853 0.0117911 0.000982782 -0.00674543 -0.0198144 -1.17479 -2.37874 -3.129 0.0025 
68 1 0.00166593 -0.0346797 0.00255989 0 0 0 -0.0634134 -0.0429451 0.0405664 -0.00265434 0.00200312 -0.00171096 5.51042 18.7612 7.5125 0.0025 
234 1 0.0149394 -0.0337655 0.00255061 0 0 0 -0.0294537 -0.0634721 -0.0934374 0 0 -0.00160516 -5.10375 14.5824 -12.1216 0.0025 
213 1 0.0198893 -0.0346367 0.00250848 0 0 0 -0.00660987 -0.069717 -0.0448999 0 0 -0.00160516 4.26869 -2.06817 -12.4365 0.0025 
134 1 0.0250145 -0.0348831 0.00255988 0 0 0 0.0631947 -0.152648 -0.0144257 -0.000984438 0.00033147 -0.0038446 9.66069 4.88952 -10.3941 0.0025 
369 1 0.0344261 -0.0325891 0.00250562 0 0 0 0.0488698 -0.00223132 -0.114732 0 0 -0.00160516 6.46803 8.27071 -19.83 0.0025 
306 1 -0.037266 -0.0291559 0.00252914 0 0 0 0.0346955 0.00860838 -0.0341592 0 0 -0.00160516 0.80537 -1.0229 -22.0202 0.0025 
266 1 -0.031435 -0.0290515 0.00249122 0 0 0 -0.0195705 0.000413233 -0.0390079 0.0118541 0.0358191 -0.00546713 14.3524 -9.06586 -8.34844 0.0025 
113 1 -0.0259821 -0.0310654 0.00249068 0 0 0 0.0205559 0.0330252 -0.0504354 0.0136786 -0.000905221 -0.0167233 -2.08736 -15.6764 -7.34952 0.0025 
265 1 -0.0126339 -0.0300952 0.00247922 0 0 0 -0.0381196 0.0207701 0.0391431 0.000898136 -0.00034551 0.0176409 0.241606 7.00381 9.05793 0.0025 
115 1 -0.00521344 -0.0294932 0.00250558 0 0 0 -0.0829208 -0.0970071 -0.0257154 -0.00815793 -0.0146243 -0.00782419 3.0663 10.4659 20.296 0.0025 
225 1 -0.000143163 -0.0297579 0.0027808 0 0 0 0.0573996 0.0205791 0.0399262 0 0 -0.00160516 -15.4153 -18.586 -10.5731 0.0025 
30 1 0.0049267 -0.0307302 0.00249005 0 0 0 -0.00255987 0.00241077 0.0419541 0.00592862 -0.00128354 -0.0238776 -3.41857 7.75465 10.8973 0.0025 
220 1 0.0101076 -0.0313418 0.0024788 0 0 0 -0.0314797 -0.0608203 0.0399597 -0.00109543 -0.00281127 0.0180043 22.2505 10.3288 2.11877 0.0025 
440 1 0.0185003 -0.0297745 0.00253236 0 0 0 0.0722026 -0.0297252 -0.113024 -0.00350059 -0.000493295 -0.0013831 6.60504 -8.88571 2.34511 0.0025 
13 1 0.0234437 -0.0290776 0.00246859 0 0 0 -0.00710272 -0.091901 0.0911907 0.00660938 0.000128183 0.0303974 12.408 9.4749 -22.8782 0.0025 
66 1 0.0290266 -0.0313452 0.00268058 0 0 0 0.0476023 -0.133459 0.088086 0 0 -0.00160516 24.4553 10.0571 -11.622 0.0025 
205 1 0.0380406 -0.0284363 0.0024771 0 0 0 -0.0305714 -0.0480525 -0.00742318 0.00140079 -0.000639643 0.0206912 6.44796 -6.16508 -14.6001 0.0025 
296 1 -0.0403421 -0.0250569 0.00257925 0 0 0 -0.0208871 0.0315251 0.0372115 -0.00378381 -0.00832554 -0.028417 -11.4381 -10.5758 -0.166358 0.0025 
365 1 -0.0347402 -0.0247798 0.00267942 0 0 0 0.000472318 -0.0174202 0.126777 0 0 -0.00160516 9.93085 -0.5674 14.7842 0.0025 
195 1 -0.0274352 -0.0260338 0.00249185 0 0 0 0.0247596 -0.0386089 0.0059514 -0.00905973 -0.0217796 -0.0322459 6.40285 -8.3558 -0.884121 0.0025 
394 1 -0.0225283 -0.0273203 0.00255473 0 0 0 -0.0795326 -0.027962 -0.0819243 0 0 -0.00160516 0.660528 3.32476 8.83843 0.0025 
434 1 -0.0174408 -0.0282041 0.00248436 0 0 0 0.0301876 -0.00695021 0.128073 -0.000222801 -0.0116926 -0.0213629 -14.2645 1.85422 12.9389 0.0025 
286 1 -0.00894245 -0.0260129 0.0026496 0 0 0 0.0475797 0.0215875 -0.051131 0.0352124 -0.0100137 0.00151244 -2.62171 -19.2561 -5.00555 0.0025 
346 1 0.0129615 -0.0272492 0.00255268 0 0 0 0.0103604 0.108396 -0.0240993 0.00208377 0.00289151 -0.00138282 16.5826 14.2404 9.20687 0.0025 
304 1 0.027551 -0.0259574 0.00249598 0 0 0 0.0570121 -0.00716402 0.0832721 -4.23223e-05 1.32723e-05 -0.000718065 -1.39405 9.23383 -26.9397 0.0025 
285 1 0.0325952 -0.0278394 0.00259565 0 0 0 0.0569314 -0.102484 -0.0902225 0 0 -0.00160516 10.6192 -0.75117 1.38007 0.0025 
15 1 -0.0234619 -0.0222019 0.00245759 0 0 0 -0.0475165 -0.0397007 0.00312521 0.00154578 0.00246494 0.0558507 -22.7569 8.61992 -4.96096 0.0025 
421 1 -0.018511 -0.023354 0.0024836 0 0 0 0.0400168 -0.00723141 0.026449 -0.0244548 0.0325185 0.0139195 2.77744 3.22402 13.8334 0.0025 
374 1 -0.0137388 -0.024762 0.00245095 0 0 0 0.0657467 -0.00595192 0.0619643 -0.024758 0.000383766 0.0647588 10.8606 11.4038 -9.13525 0.0025 
334 1 -0.00522466 -0.0215597 0.00255813 0 0 0 0.0266859 -0.00889021 -0.0164115 0 0 -0.00160516 0.685857 6.34646 -15.9665 0.0025 
87 1 1.20023e-05 -0.0215753 0.00255607 0 0 0 -0.0285423 0.133203 0.0326445 0.00777227 -0.0421312 -0.00063775 16.8758 -8.5822 -3.4953 0.0025 
32 1 0.00869248 -0.0245102 0.00256576 0 0 0 -0.0881017 -0.0389084 0.0765209 0 0 -0.00160516 1.00549 -18.15 26.2204 0.0025 
424 1 0.0176466 -0.0245951 0.00258039 0 0 0 -0.0251735 -0.0163446 0.0128421 -0.00341311 0.00257783 -0.00520995 16.9913 14.1616 7.50828 0.0025 
307 1 0.0229387 -0.0235949 0.00254972 0 0 0 -0.0329009 -0.0317432 -0.0668525 0 0 -0.00160516 21.2352 0.904287 13.0862 0.0025 
44 1 0.0410006 -0.0239852 0.00258368 0 0 0 -0.0245831 -0.154818 -0.0951295 -0.000426286 5.75641e-05 -0.00196125 -8.2798 -4.07082 8.2312 0.0025 
58 1 -0.0427673 -0.0205016 0.00248602 0 0 0 0.00893773 -0.0686087 0.0377092 -0.00723006 0.000785274 0.00841248 4.8776 5.13241 5.47776 0.0025 
404 1 -0.037783 -0.0206569 0.00252238 0 0 0 -0.0160828 -0.0543177 -0.0816895 -0.00415565 -0.0203628 -0.00135389 0.281094 5.28213 -3.40791 0.0025 
187 1 -0.0286153 -0.0211044 0.00247132 0 0 0 -0.00889811 0.0453151 -0.0346955 0.0157775 -0.00320319 0.0241677 5.30749 -0.294317 4.96511 0.0025 
380 1 -0.0203148 -0.0181436 0.00247641 0 0 0 0.00817664 -0.0778339 0.0804397 -0.000301743 0.00109694 0.0211485 23.7185 1.20147 7.62295 0.0025 
293 1 -0.0148307 -0.019092 0.00246305 0 0 0 -0.129542 -0.0425197 0.0353166 0.00227534 0.000447809 0.0447746 12.2169 -27.1185 -0.62728 0.0025 
433 1 -0.0102739 -0.0211712 0.00247961 0 0 0 0.0907186 0.0196935 -0.0181299 0.00227191 0.00288116 0.0179284 3.07661 0.433668 7.31401 0.0025 
273 1 0.00934553 -0.0184963 0.00250244 0 0 0 0.0740432 -0.0176002 0.0426391 0 0 -0.00160516 13.9087 -8.62141 -14.9077 0.0025 
75 1 0.0137894 -0.0210935 0.00266509 0 0 0 0.040565 -0.0704384 0.0290651 -0.00232746 -0.0505988 -0.00109792 7.33696 26.0632 1.70671 0.0025 
366 1 0.0193709 -0.0195615 0.00275902 0 0 0 -0.0370484 -0.00906007 0.0518844 0 0 -0.00160516 2.45093 -8.82778 -7.55371 0.0025 
159 1 0.0249172 -0.0189742 0.00290027 0 0 0 0.0861379 0.080861 0.0646573 0 0 -0.00160516 -7.04149 -0.726384 11.5975 0.0025 
149 1 0.0296571 -0.0207673 0.00262794 0 0 0 -0.031356 -0.0147335 0.189596 0 0 -0.00160516 4.86729 -11.0223 8.92507 0.0025 
448 1 0.0376845 -0.01967 0.00248077 0 0 0 0.0282558 0.0460908 -0.0317786 -0.00308478 -0.0040753 0.016435 -7.70886 -7.82813 4.43093 0.0025 
339 1 0.0433218 -0.0194179 0.00249108 0 0 0 -0.0049153 0.0250505 -0.0463632 -0.000192582 0.000237301 0.00450712 -22.6292 -12.1886 0.253915 0.0025 
231 1 -0.0448524 -0.0157516 0.002512 0 0 0 -0.0582411 0.0555082 -0.0279846 0.0533753 -0.0157989 -0.010674 -3.32375 3.69196 18.3383 0.0025 
9 1 -0.0351281 -0.0164548 0.00247303 0 0 0 0.00279134 -0.0239897 -0.0986891 0.0103933 0.0116914 0.0297463 2.88068 16.5466 7.37073 0.0025 
445 1 -0.0301702 -0.0153887 0.00252396 0 0 0 0.0551291 0.0648974 0.0637055 0 0 -0.00160516 6.63873 -6.02692 -4.58915 0.0025 
6 1 -0.0253373 -0.0172875 0.00260261 0 0 0 -0.0165889 -0.0364081 -0.000236776 0 0 -0.00160516 3.75754 -4.37338 7.93569 0.0025 
40 1 -0.00573237 -0.0165 0.0025667 0 0 0 -0.034718 0.0344953 -0.00200964 0 0 -0.00160516 5.76037 -1.44815 1.723 0.0025 
52 1 -0.000647024 -0.0166628 0.00249086 0 0 0 0.0482632 0.0453082 0.0491395 -0.00628271 0.0310565 -0.0139946 -11.5087 0.613946 -5.91745 0.0025 
405 1 0.00443249 -0.0164739 0.00253169 0 0 0 -0.0428872 0.163234 0.0121215 -0.00977781 0.000943321 -0.0180513 -4.03912 -1.79274 -18.9384 0.0025 
379 1 0.0137754 -0.0161439 0.0025624 0 0 0 0.0801684 -0.00494403 0.0672297 0.00232746 0.0505988 -0.00211239 8.40172 -3.5758 -17.7443 0.0025 
20 1 0.0288003 -0.0149598 0.00248576 0 0 0 0.0270974 0.136578 -0.0498071 -0.00896667 0.00140227 0.00808892 2.49247 11.4995 -6.52141 0.0025 
183 1 0.0333536 -0.0169817 0.00244849 0 0 0 -0.0404999 -0.0317976 -0.0246664 0.00858553 -0.00512543 0.0720153 -2.28083 -2.04489 2.97041 0.0025 
386 1 0.040167 -0.0153434 0.002643 0 0 0 -0.0304598 0.0445515 0.00569124 0.00229902 0.00362864 -0.00156859 10.1587 16.5175 -16.9079 0.0025 
104 1 0.0452646 -0.0144321 0.00253272 0 0 0 -0.0259899 0.0245826 -0.0703426 -0.00565964 0.00169568 -0.00132859 7.01866 -1.95999 4.4306 0.0025 
196 1 -0.0457651 -0.0108688 0.00249585 0 0 0 -0.0624105 0.0174745 -0.10206 -0.00546078 0.0212967 -0.0191466 -17.1115 -1.98462 -6.41974 0.0025 
74 1 -0.0390484 -0.0114333 0.00248564 0 0 0 -0.0233175 0.0279186 0.0558446 0.000522018 -0.000103258 0.0090375 -10.0012 -3.27265 -1.85867 0.0025 
449 1 -0.033945 -0.0116135 0.00249515 0 0 0 0.0270749 -0.00608223 -0.0510742 0.00231847 0.00916334 0.000755527 -5.57309 2.75638 -27.7411 0.0025 
36 1 -0.0272436 -0.011156 0.00259808 0 0 0 0.0130883 0.0289442 0.0499718 -0.0394719 0.012849 -0.00229901 24.5278 -5.00807 5.01048 0.0025 
331 1 -0.0225656 -0.0127887 0.00245648 0 0 0 0.0461756 -0.0532903 -0.0985363 -0.00471447 -0.0090805 0.0300895 8.71332 2.52398 -8.09217 0.0025 
326 1 -0.0167819 -0.0144395 0.00256155 0 0 0 0.0238926 -0.0531686 0.0226469 0 0 -0.00160516 3.55198 5.04851 -23.2089 0.0025 
158 1 -0.0101164 -0.0138729 0.00246219 0 0 0 -0.00988797 0.0799642 0.0505718 -0.00340499 -0.00393848 0.0421344 -10.4022 -0.480817 11.2918 0.0025 
226 1 -0.00337222 -0.0116762 0.00250772 0 0 0 0.0167671 0.00809911 0.0819994 0 0 -0.00160516 -2.65234 5.8422 -22.6474 0.0025 
22 1 0.00174828 -0.0121152 0.0024829 0 0 0 0.143565 0.139039 -0.0920666 -0.00701592 -0.00463058 0.014364 16.5325 23.9603 2.55992 0.0025 
7 1 0.00936962 -0.0134342 0.00259987 0 0 0 0.133986 0.165497 -0.0367976 0.0042473 -0.0053774 -0.00178569 -11.3471 6.51076 -2.33987 0.0025 
142 1 0.0187513 -0.0134571 0.00255209 0 0 0 -0.0255177 -0.0269502 -0.0060358 -0.00553625 0.00282495 -0.00491738 -5.05629 -9.55395 1.78801 0.0025 
2 1 0.0236968 -0.0140859 0.00246189 0 0 0 0.0189454 -0.0246032 0.0250738 0.00564307 0.000855477 0.0458654 1.59844 -7.30768 -16.3398 0.0025 
313 1 0.0356661 -0.0125582 0.00251 0 0 0 0.00768566 -0.052019 -0.0941966 0.00153804 0.00304882 -0.00139954 -13.162 -20.9357 -17.7599 0.0025 
238 1 -0.0420367 -0.00731932 0.00254231 0 0 0 -0.061462 -0.0024404 -0.0333037 0 0 -0.00160516 -4.32858 12.3182 -15.3 0.0025 
949 1 -0.0361161 -0.00691859 0.00253571 0 0 0 0.0622815 0.0666422 0.0953781 0 0 -0.00160516 5.15151 11.9508 10.9752 0.0025 
367 1 -0.0310249 -0.00750553 0.00290878 0 0 0 0.0803085 -0.062944 0.0400101 0 0 -0.00160516 -2.85446 -8.65214 -0.0502207 0.0025 
49 1 -0.0232156 -0.00754291 0.00258047 0 0 0 0.0367229 -0.0178512 0.044545 -0.00041845 -0.000559612 -0.00975617 3.85446 11.2742 -1.6216 0.0025 
252 1 -0.0186661 -0.00970918 0.0025158 0 0 0 -0.0523202 -0.0690336 -0.0219848 0.000238691 0.0189217 -0.00319545 12.3663 1.50675 16.2706 0.0025 
117 1 -0.0137414 -0.0103973 0.002452 0 0 0 -0.0396176 0.0550694 -0.227508 0.0237786 -0.00496265 0.0726918 -10.2582 4.87977 8.58708 0.0025 
190 1 -0.00854359 -0.00908743 0.00282381 0 0 0 -0.00158543 0.0164332 -0.0178491 0 0 -0.00160516 14.0983 19.6294 15.4908 0.0025 
240 1 0.00609055 -0.00967974 0.00276933 0 0 0 0.0903211 0.0452518 -0.0377278 0.00238012 0.00931352 -0.00134387 -7.93611 3.36326 -7.06901 0.0025 
24 1 0.0109322 -0.00842795 0.0024853 0 0 0 0.0998604 0.0016604 -0.0978586 -0.0314715 0.0397148 -0.0189087 7.54154 13.914 10.3845 0.0025 
233 1 0.016169 -0.00857767 0.00250293 0 0 0 -0.0235541 0.0158826 -0.033576 -0.0159106 -0.0427131 -0.00333223 17.8817 14.1435 12.1899 0.0025 
338 1 0.0215028 -0.00893191 0.00248423 0 0 0 -0.0721841 -0.0725908 -0.00736563 0.000517431 0.000408901 0.0115848 5.91394 0.410639 10.6072 0.0025 
337 1 0.0301456 -0.010058 0.00266817 0 0 0 0.0163857 0.0081733 -0.0524758 0 0 -0.00160516 2.19254 4.68837 -4.68689 0.0025 
237 1 0.0377801 -0.00783353 0.00246881 0 0 0 0.022956 0.0307769 0.0192346 -0.000341215 -0.00177345 0.0345143 -9.50079 8.68399 6.71175 0.0025 
426 1 0.0420938 -0.0104953 0.00247026 0 0 0 -0.0190344 0.00292695 -0.0388412 -0.0011071 -0.000531279 0.0330206 -11.5411 18.0733 6.43592 0.0025 
362 1 0.046722 -0.00862525 0.00252406 0 0 0 0.0458096 -0.00571102 0.0344143 0.0092592 0.0375402 -0.058215 5.01141 3.64291 11.9202 0.0025 
292 1 -0.0470667 -0.00603848 0.0024882 0 0 0 -0.00977256 -0.020139 0.061957 -0.00787022 0.01042 -0.0505069 5.08267 -4.64903 5.75003 0.0025 
342 1 -0.0273732 -0.00380801 0.0025509 0 0 0 0.0787119 0.00578976 0.0727982 -0.00274018 -0.00138078 -0.00524626 -2.68545 -3.17694 11.2924 0.0025 
328 1 -0.0166595 -0.00504309 0.00252 0 0 0 -0.0589241 -0.102014 0.0222574 0.0141094 -0.0241351 -0.000741603 -9.93865 -6.9928 14.581 0.0025 
278 1 -0.0119714 -0.00340062 0.00255494 0 0 0 0.025298 0.0424788 0.0522922 0.0180857 -0.00344424 -0.00298606 -14.53 2.12055 4.44908 0.0025 
61 1 -0.00364992 -0.00639508 0.00250037 0 0 0 -0.00491269 -0.119613 0.0827682 0 0 -0.00160516 9.92274 9.63322 6.69323 0.0025 
347 1 0.00201139 -0.00678858 0.00273634 0 0 0 0.0314135 0.0154251 -0.0774557 0.0121375 0.00894191 -0.0139353 -1.8933 7.972 18.3657 0.0025 
202 1 0.00733233 -0.00452474 0.00257412 0 0 0 -0.0592188 -0.0615739 0.0798418 0 0 -0.00160516 7.02862 5.48706 -2.00839 0.0025 
154 1 0.0124355 -0.00340863 0.00260824 0 0 0 0.0133255 0.0936565 0.0645807 0 0 -0.00160516 1.4598 12.2108 17.3127 0.0025 
80 1 0.0176838 -0.00386141 0.0025913 0 0 0 0.00211213 0.00863207 0.00543006 0.0066467 0.0173197 0.000666077 4.80426 -1.77418 -27.7312 0.0025 
971 1 0.0229249 -0.00328434 0.00245794 0 0 0 -0.0626199 0.0839679 -0.0222793 0.00143789 -0.00248451 0.0558067 -5.59187 -8.89262 -15.2983 0.0025 
1046 1 0.0279306 -0.00350308 0.00245846 0 0 0 -0.00885073 -0.0582239 -0.0236823 -0.00045986 0.00155696 0.0533734 -2.87058 -10.339 4.47765 0.0025 
92 1 0.0326728 -0.00568803 0.0025249 0 0 0 0.0509389 0.0592767 -0.0085801 0.00350348 -0.00320262 -0.008432 -8.93181 -14.3936 5.25263 0.0025 
305 1 0.0458586 -0.0037083 0.00251446 0 0 0 0.0103363 -0.0265661 0.102359 0.000440148 0.00147337 -0.0018583 -6.73014 -2.0314 -10.2992 0.0025 
945 1 -0.0429837 -0.00238337 0.0024811 0 0 0 0.0443926 0.0316809 -0.0372198 -0.036216 -0.00953136 0.0158719 -5.55408 -10.8375 3.89789 0.0025 
1341 1 -0.0381301 -0.0013598 0.00253317 0 0 0 0.0488803 0.0338019 -0.0524224 0.0359921 0.00146069 -0.0105598 6.69455 14.168 6.74412 0.0025 
98 1 -0.0330961 -0.00286421 0.00250265 0 0 0 0.0786773 -0.0666664 -0.108794 0 0 -0.00160516 -3.17648 9.73705 15.4178 0.0025 
1337 1 -0.0211193 -0.00288063 0.00247394 0 0 0 -0.0163561 -0.0201138 0.0112471 -0.010662 0.0154879 -0.00799663 0.52281 8.1025 -7.6277 0.0025 
1127 1 -0.0160461 -4.64708e-05 0.00246767 0 0 0 0.0569558 0.0324118 0.00534154 0.00252808 -0.000507965 0.0310458 -3.87427 -4.24367 14.7278 0.0025 
250 1 -0.00299868 -0.00100774 0.0024839 0 0 0 0.0910705 -0.13058 -0.119698 0.00577233 0.00375079 0.0112953 -1.96544 15.4775 -1.5406 0.0025 
21 1 0.00293125 -0.00175961 0.00247385 0 0 0 -0.0144197 -0.102343 -0.120565 0.000120153 0.00148491 0.0281902 -11.4955 -1.53757 -2.73839 0.0025 
368 1 0.0359249 -0.00113451 0.00244988 0 0 0 0.0981016 0.016731 -0.0710458 -0.00569643 -0.00276757 0.0739129 -1.97786 0.575737 3.21018 0.0025 
425 1 0.0406366 -0.00334509 0.00247208 0 0 0 0.00260657 -0.036324 -0.104498 -0.00566515 -0.00497486 0.0307208 13.0156 -2.70097 -15.9124 0.0025 
73 1 -0.00441327 -0.0472509 0.00636013 0 0 0 0.0213749 -0.0430862 0.056344 0 0 -0.00160516 -9.25037 -32.7824 1.5169 0.0025 
241 1 0.00946069 -0.0465645 0.00366113 0 0 0 0.0239275 0.052518 -0.074027 -0.00260438 0.0122848 -0.000986342 -10.9694 21.7429 -9.62029 0.0025 
352 1 -0.0120382 -0.0458141 0.00589806 0 0 0 0.0449435 -0.112359 0.0363004 0.0142272 -0.00410109 -0.0183095 -15.3019 -1.51834 0.231431 0.0025 
377 1 0.00366242 -0.0430122 0.0069013 0 0 0 0.0603675 0.146646 0.0697763 -0.0121048 0.0245498 -0.0152482 10.3052 -14.19 -13.0864 0.0025 
8 1 -0.0141207 -0.0409607 0.00603576 0 0 0 0.0222329 -0.10022 0.0769731 0 0 -0.00160516 -16.3038 4.09251 -15.7404 0.0025 
444 1 -0.00741602 -0.0430774 0.00652121 0 0 0 -0.0527431 0.0501264 -0.241365 -0.0307409 0.000322154 0.0445132 -5.72393 -10.4782 10.9523 0.0025 
60 1 0.00907463 -0.0415375 0.00681273 0 0 0 0.0621264 -0.029999 -0.0889706 -0.0437076 -0.0181184 0.00171219 -10.7199 -12.2995 -9.48239 0.0025 
388 1 0.013543 -0.0394219 0.00651169 0 0 0 0.0205294 0.117815 -0.0106006 0.0153872 -0.00718594 -0.00394562 -7.99238 -16.7632 -1.834 0.0025 
16 1 -0.018771 -0.036372 0.0064145 0 0 0 0.110809 0.0449214 -0.081507 0.0181902 0.000250754 -0.0179963 0.351296 0.858817 9.27311 0.0025 
70 1 0.000470062 -0.0366445 0.00709039 0 0 0 -0.0502781 -0.0947633 0.0227594 0 0 -0.00160516 -19.544 -16.4456 14.682 0.0025 
589 1 0.0171089 -0.0359737 0.00653656 0 0 0 -0.0966044 0.0648244 0.00401157 0.0283203 0.0253044 -0.00258205 -8.94462 3.21232 7.5594 0.0025 
332 1 0.0217425 -0.0381963 0.0056517 0 0 0 -0.00892316 -0.140769 0.0148664 0 0 -0.00160516 0.865245 7.95847 10.7763 0.0025 
348 1 -0.0250185 -0.0348502 0.00562895 0 0 0 -0.073187 4.99838e-05 0.033905 0 0 -0.00160516 -0.817108 -1.31939 6.81412 0.0025 
378 1 -0.0130792 -0.0344141 0.00670844 0 0 0 0.0127161 -0.0111743 -0.0693858 0 0 -0.00160516 9.25997 2.54409 -5.21056 0.0025 
160 1 0.00263411 -0.0319158 0.00673793 0 0 0 0.0508277 0.0326886 -0.0255517 -0.0115348 -0.00466103 0.0195543 -15.9003 -6.30858 -7.28875 0.0025 
170 1 0.00714302 -0.0339251 0.0056901 0 0 0 -0.00965756 0.113216 -0.120609 0 0 -0.00160516 7.14291 6.36216 -1.89981 0.0025 
357 1 0.0120582 -0.0339008 0.00671017 0 0 0 -0.0207083 -0.102066 -0.00947415 -0.0481105 -0.0423094 0.00269844 -7.91153 -21.0701 -7.21308 0.0025 
280 1 0.0315135 -0.0347276 0.00710205 0 0 0 0.115626 -0.0313621 -0.00426692 0.000449945 -0.00571408 -0.00155468 7.44944 -3.20504 -9.03149 0.0025 
11 1 -0.0343376 -0.0298951 0.00669548 0 0 0 0.0279564 -0.0329148 -0.0678397 0.00509994 -0.00776983 -0.0189483 -4.26613 -1.14282 -10.8986 0.0025 
314 1 -0.0293226 -0.0317489 0.00610822 0 0 0 -0.0344946 0.0189305 -0.0475402 0.00300305 0.00495253 0.0208346 0.620831 10.6491 -1.02257 0.0025 
152 1 -0.0163439 -0.0306121 0.006684 0 0 0 0.0287239 -0.0251044 -0.122132 0.00700451 -0.0153128 0.0283379 2.97109 -5.18892 -20.5546 0.0025 
320 1 0.0157179 -0.0305809 0.00661354 0 0 0 0.0265199 -0.017271 0.0412335 0.0450121 0.0387607 -0.011824 -12.9461 -1.68615 14.3055 0.0025 
262 1 0.0212154 -0.0316102 0.00631567 0 0 0 -0.00649221 -0.0375358 -0.00244786 -0.0258658 -0.0336736 -0.0645057 -14.3203 -0.891455 39.3408 0.0025 
294 1 -0.0307218 -0.0264282 0.00675706 0 0 0 -0.0452104 0.0320928 0.0898281 -0.00355304 -0.0148223 -0.0178472 -0.501878 5.51057 -12.2486 0.0025 
359 1 -0.0255397 -0.0285276 0.00676192 0 0 0 -0.00423468 -0.0143542 0.0677966 -0.0090389 0.000914858 -0.00810379 19.2322 5.29879 -7.37921 0.0025 
164 1 -0.00274071 -0.0255594 0.00428354 0 0 0 -0.0162048 -0.0583246 0.0163744 0.00815793 0.0146243 0.00461388 -2.39645 -7.58721 4.15277 0.0025 
76 1 0.00340619 -0.0260255 0.00337133 0 0 0 -0.0253797 0.0675796 -0.126408 0 0 -0.00160516 -24.7744 -13.8945 -2.59265 0.0025 
441 1 0.00762796 -0.0282238 0.00584313 0 0 0 -0.0263581 -0.0355105 0.102081 0.00589717 0.00602642 0.00555273 -9.90248 -30.0605 -8.25506 0.0025 
323 1 0.0207343 -0.026673 0.00590143 0 0 0 0.0716648 0.00524881 0.0471055 -0.000995015 0.0142631 0.00348878 1.73609 13.4635 -20.2141 0.0025 
508 1 0.0262677 -0.0278047 0.00699503 0 0 0 0.00756525 0.0161918 0.0201957 -1.39017e-05 0.000300116 -0.00161135 17.3291 -18.8258 12.3421 0.0025 
26 1 0.0395414 -0.0263159 0.00689318 0 0 0 0.025541 -0.0127894 0.00121325 0.00203936 0.00231713 -0.00177986 -14.3741 -8.39508 -9.19127 0.0025 
372 1 -0.040331 -0.0221171 0.00659171 0 0 0 -0.0792277 -0.0807679 0.0114971 -0.0168214 -0.011044 0.00919828 8.34034 0.923687 -16.3864 0.0025 
192 1 -0.0263188 -0.0233036 0.00647471 0 0 0 0.0359073 0.0773206 -0.0265093 0.00884083 0.0218765 0.0338233 9.22844 -12.8695 10.2115 0.0025 
163 1 -0.0213846 -0.0243854 0.00644489 0 0 0 -0.0713683 -0.0450357 0.0339522 0.000133874 -0.000120089 -0.00137371 3.31618 -1.51736 -13.9714 0.0025 
145 1 -0.0131665 -0.0216053 0.00653216 0 0 0 -0.0198699 -0.115042 -0.0649565 0.00435275 0.0269424 -0.0472219 -10.485 -8.34947 22.309 0.0025 
165 1 -0.0078335 -0.0221025 0.00701458 0 0 0 0.0400716 0.109147 -0.0404169 0 0 -0.00160516 31.7041 -8.11962 -3.41192 0.0025 
383 1 0.00502949 -0.0212843 0.00374158 0 0 0 0.00945697 0.0306275 -0.0541197 4.05257e-05 -0.00046983 -0.00147002 8.37321 -3.32557 -3.36081 0.0025 
219 1 0.0103388 -0.0216854 0.00660405 0 0 0 -0.0345019 0.0481948 -0.0216651 0 0 -0.00160516 -0.949031 10.7015 12.5092 0.0025 
269 1 0.021392 -0.0216865 0.00711917 0 0 0 0.0180149 0.0585107 -0.0236881 0 0 -0.00160516 -22.9195 2.91687 -4.24995 0.0025 
391 1 0.0265003 -0.0224767 0.00636816 0 0 0 0.0135583 0.0914293 -0.117783 0 0 -0.00160516 10.7674 -9.61078 -15.6665 0.0025 
435 1 0.031095 -0.024564 0.00620325 0 0 0 -0.0631134 0.00366768 -0.129233 0.00708905 0.0124021 -0.040024 -10.1398 -2.52564 5.50186 0.0025 
132 1 0.0358857 -0.0242087 0.00403339 0 0 0 0.000278998 0.0230907 -0.0282237 -0.000891279 0.00167159 -0.00088398 14.7737 12.1157 1.61048 0.0025 
439 1 -0.0437198 -0.0180962 0.00677178 0 0 0 -0.0122136 0.0504868 0.0128324 0.000684347 -0.00133645 0.00060368 8.69915 19.0396 -7.25438 0.0025 
382 1 -0.0330415 -0.0205074 0.00466537 0 0 0 -0.0180966 0.068492 -0.00347262 -0.0141331 0.00355662 0.00318188 13.5826 -18.1162 -4.49731 0.0025 
201 1 -0.0180246 -0.0201615 0.00644082 0 0 0 -0.0318616 0.0457322 -0.03904 0.00349702 -0.000677203 -0.00206582 -5.85685 32.5795 -17.8609 0.0025 
41 1 -0.00289275 -0.0197729 0.0066602 0 0 0 -0.0102482 0.0644812 -0.0206043 0 0 -0.00160516 -10.0843 15.8433 -23.5629 0.0025 
282 1 0.0405479 -0.0210288 0.00658459 0 0 0 -0.103455 -0.0531721 0.0493812 -0.000451018 0.00401104 -0.00814756 16.0069 -21.6377 7.18981 0.0025 
121 1 -0.0400521 -0.0163618 0.00377692 0 0 0 0.00186087 -0.0225168 0.0114064 0 0 -0.00160516 22.0895 10.9825 -15.693 0.0025 
361 1 -0.0326044 -0.0160657 0.00700719 0 0 0 0.110484 0.0489111 -0.110992 0 0 -0.00160516 7.71298 -26.8774 -2.61629 0.0025 
236 1 -0.0201168 -0.0146733 0.00633164 0 0 0 0.097581 0.10117 0.0537962 0.0209156 -0.0176565 0.0299884 -34.9162 13.3542 7.53716 0.0025 
23 1 -0.0104128 -0.0173366 0.00606634 0 0 0 0.0146857 0.00702889 -0.0022959 0 0 -0.00160516 -3.87199 3.29359 -0.621783 0.0025 
54 1 0.0168859 -0.0156123 0.00665063 0 0 0 0.113436 -0.0739111 -0.114268 0.0015297 0.0280906 0.0010495 10.7961 20.4514 0.0669579 0.0025 
140 1 0.0217631 -0.0167797 0.0061987 0 0 0 -0.0492399 -0.0255703 -0.11903 -0.000585962 -0.000867195 -0.000309137 7.66613 22.2228 -6.84727 0.0025 
1 1 0.0365601 -0.0160021 0.00614264 0 0 0 0.049413 0.0491455 0.0135619 0.00302533 0.000754472 0.0020917 23.0894 -1.5197 6.81967 0.0025 
105 1 -0.0454238 -0.0133174 0.0068257 0 0 0 -0.112132 -0.00214052 -0.0597866 0.000261139 0.00068063 0.0119711 5.10077 5.67025 -15.2762 0.0025 
335 1 -0.0368837 -0.0132637 0.00672779 0 0 0 -0.0227249 -0.0651876 -0.0632916 0 0 -0.00160516 11.4416 -23.5784 -9.31171 0.0025 
436 1 -0.025214 -0.0145197 0.00678252 0 0 0 -0.0611187 -0.000294367 0.0333469 0 0 -0.00160516 7.33316 19.6833 -29.8931 0.0025 
397 1 -0.0116647 -0.0120597 0.0069993 0 0 0 0.0185201 -0.0100544 0.0204086 0 0 -0.00160516 -7.24143 -23.6327 -2.81154 0.0025 
203 1 -0.00679686 -0.0127417 0.00601145 0 0 0 -0.108746 0.0291109 0.00943329 0.00376045 0.00157668 0.00242339 7.60959 -19.0589 -7.12526 0.0025 
321 1 -0.00129937 -0.0140353 0.00666288 0 0 0 -0.0495699 0.0217492 0.0797708 -0.00307453 -0.00790671 0.016472 7.34483 -15.9997 -24.4288 0.0025 
442 1 0.003683 -0.0123811 0.00708907 0 0 0 -0.0451848 -0.100188 -0.170329 0 0 -0.00160516 -12.9947 0.356384 15.0762 0.0025 
384 1 0.0133666 -0.0117495 0.00522545 0 0 0 0.0336796 0.0646815 -0.104715 0.0308391 -0.039878 0.0287611 0.00720117 -16.9721 -0.0517085 0.0025 
166 1 0.0215351 -0.0117872 0.0069383 0 0 0 0.125952 -0.00111418 -0.150419 0 0 -0.00160516 12.0736 6.98455 23.0813 0.0025 
406 1 0.0267749 -0.0122331 0.00614326 0 0 0 0.0114596 0.0486276 0.0646109 -0.00240407 0.000712079 -0.000200064 14.4155 2.7551 16.3637 0.0025 
153 1 0.0318927 -0.0136939 0.00688806 0 0 0 -0.0293109 -0.154103 0.0848772 0 0 -0.00160516 -12.5523 -34.4253 10.7582 0.0025 
59 1 0.0394524 -0.0119566 0.00688642 0 0 0 0.0139026 -0.128122 -0.058441 0 0 -0.00160516 18.3428 -0.0844979 -0.914806 0.0025 
450 1 0.0459087 -0.0114375 0.00650318 0 0 0 0.141867 -0.0292063 -0.0665132 -0.00154581 -0.0356153 0.0336811 19.6087 11.2593 -8.39426 0.0025 
136 1 -0.046245 -0.00837866 0.00677678 0 0 0 -0.0575705 -0.0525628 -0.00380695 0.00744055 -0.0107068 0.0538896 -6.51274 11.5009 -19.6068 0.0025 
336 1 -0.0413473 -0.00998767 0.00687862 0 0 0 -0.103545 -0.0459398 -0.0431073 0 0 -0.00160516 7.33075 -4.98773 0.649884 0.0025 
270 1 -0.0306537 -0.0112662 0.00627851 0 0 0 0.149798 -0.1723 -0.0101102 0 0 -0.00160516 1.38289 -13.7938 -12.613 0.0025 
419 1 -0.0264696 -0.00729148 0.00635813 0 0 0 -0.00165314 -0.0495423 -0.0156663 -0.0040407 -0.017989 -0.0284856 -5.35823 5.05791 22.0042 0.0025 
157 1 -0.021344 -0.00704034 0.00717739 0 0 0 -0.0792435 0.0639944 0.0218779 0.00247041 0.000392096 0.00390761 8.24531 0.257637 -20.7377 0.0025 
65 1 -0.000885939 -0.00911747 0.0060419 0 0 0 0.118175 0.0556433 -0.0272022 -0.0107524 0.00993276 0.00926539 -14.8159 -27.2571 -26.9201 0.0025 
254 1 0.0257685 -0.00733107 0.00492749 0 0 0 0.0159434 -0.0104701 0.0752969 0 0 -0.00160516 -20.0707 -20.5833 -2.55662 0.0025 
124 1 0.0344455 -0.00870293 0.00627047 0 0 0 0.0671866 -0.0121 -0.0577222 0 0 -0.00160516 14.7015 23.6604 6.9939 0.0025 
122 1 0.0414972 -0.00693005 0.00600378 0 0 0 -0.0421968 0.0429104 -0.0779708 0 0 -0.00160516 10.7429 -21.3331 -9.02 0.0025 
42 1 -0.0391698 -0.00491654 0.00599523 0 0 0 0.137749 -0.083198 0.0940477 0.0291043 0.00178066 -0.0249885 -17.7517 -2.22499 10.8513 0.0025 
27 1 -0.0341716 -0.00613822 0.00712071 0 0 0 -0.0186103 0.0118913 -0.0784331 0 0 -0.00160516 32.6686 11.7204 1.78656 0.0025 