ITEM: TIMESTEP
16800
ITEM: NUMBER OF ATOMS
1800
ITEM: BOX BOUNDS mm mm mm
-0.05 0.05
-0.05 0.05
0 0.15
ITEM: ATOMS id type x y z ix iy iz vx vy vz fx fy fz omegax omegay omegaz radius 
410 1 -0.00760111 -0.0469514 0.00275949 0 0 0 0.0238058 -0.0539828 -0.0850671 0.0129141 0.104114 -0.00511829 -39.8957 34.6106 -1.10047 0.0025 
255 1 -0.0011625 -0.0475004 0.00248963 0 0 0 0.0173383 0.0472058 -0.0735819 0.000204215 0.0108093 0.00679331 -9.52186 -0.59739 -13.7701 0.0025 
150 1 0.00479936 -0.047084 0.00358051 0 0 0 -0.00676554 -0.0294138 0.022034 -0.000264911 -0.000759676 -0.00139638 -7.37664 -0.589757 6.52886 0.0025 
217 1 -0.0157996 -0.044634 0.00267853 0 0 0 0.0632138 -0.153349 -0.115692 0 0 -0.00160516 -1.55084 -1.05439 -8.01587 0.0025 
218 1 -0.003805 -0.0432385 0.00259913 0 0 0 -0.0261461 0.00354854 -0.0777796 0 0 -0.00160516 -6.76992 15.8943 10.3041 0.0025 
28 1 0.00155112 -0.0432104 0.00246779 0 0 0 0.0236339 0.03057 0.0483196 -0.00224186 -0.000342332 0.0274664 -13.2858 19.0775 1.31049 0.0025 
279 1 0.0163164 -0.0446195 0.00251742 0 0 0 -0.0695935 0.093639 0.0386768 -0.00133768 0.00427841 -0.00167397 12.6555 4.31885 6.28684 0.0025 
413 1 -0.0262538 -0.0395912 0.0025364 0 0 0 0.0322478 -0.0139205 -0.0110975 0.00117006 0.00197114 -0.00159753 -9.10495 -8.04154 5.03916 0.0025 
37 1 -0.0216229 -0.0422883 0.00253021 0 0 0 0.0185237 -0.055406 0.0966752 -4.81359e-05 -0.00264685 -0.00171424 5.61181 -9.12528 2.03646 0.0025 
18 1 -0.0105783 -0.0426019 0.00247476 0 0 0 0.0734572 -0.0183651 -0.00790552 0.0150758 0.0143401 -0.00576957 4.63843 -7.72801 26.1316 0.0025 
141 1 0.00650755 -0.0425034 0.00254619 0 0 0 0.0100953 -0.0506278 0.00297863 0.000391496 0.00077727 -0.00200434 -15.626 5.8146 -8.4758 0.0025 
230 1 0.0121743 -0.0418174 0.00254796 0 0 0 0.00409853 0.0623961 -0.000847108 0 0 -0.00160516 -4.79798 0.668066 8.20447 0.0025 
101 1 0.0172713 -0.0390145 0.00259042 0 0 0 -0.154122 -0.0672438 -0.0122785 0 0 -0.00160516 -0.765044 18.1689 14.268 0.0025 
409 1 0.0209094 -0.0425564 0.00246403 0 0 0 -0.0168013 0.0386942 0.00581644 0.000562832 -0.00217899 0.043405 0.693192 -2.56322 6.96324 0.0025 
389 1 0.025349 -0.0398837 0.00248497 0 0 0 -0.142225 -0.0149041 -0.0986314 -0.0173933 -0.00895841 -0.0127558 -3.8119 7.85992 -18.583 0.0025 
95 1 -0.0217149 -0.0372967 0.00256608 0 0 0 -0.066024 -0.00527158 0.0666677 4.81359e-05 0.00264685 -0.00149608 14.5311 -1.98598 -3.16968 0.0025 
103 1 -0.0167317 -0.0396236 0.0025558 0 0 0 -0.0904203 0.0857422 -0.047871 -0.0420516 -0.0224061 -0.000580755 5.69418 1.35851 -5.03296 0.0025 
438 1 -0.0122534 -0.0375089 0.00251113 0 0 0 0.0110776 -0.0432969 0.0230903 0.0366441 0.0172036 -0.00288749 18.1214 -7.0984 -7.75972 0.0025 
167 1 -0.0068511 -0.0387502 0.0024862 0 0 0 -0.0695102 -0.0663115 0.00502148 -0.0113312 -0.00376678 -0.0129453 6.31657 4.36003 4.28037 0.0025 
85 1 -0.00110169 -0.0389338 0.00257011 0 0 0 0.0728847 0.00377437 -0.0529266 -0.00876866 -0.0102075 -0.0231478 7.59082 -0.261721 11.0213 0.0025 
268 1 0.00566698 -0.0375044 0.00247028 0 0 0 -0.0426886 0.0260185 -0.0210713 0.00505033 0.00381983 -0.00148494 -10.9869 5.54352 14.5132 0.0025 
126 1 0.0106509 -0.0368209 0.00252482 0 0 0 -0.0076227 0.046466 0.0655288 0 0 -0.00160516 -0.765143 -3.87175 4.83648 0.0025 
309 1 0.030154 -0.0362903 0.00252084 0 0 0 -0.00146439 -0.017831 -0.0732061 0.00157558 -0.00869029 -0.00144141 -9.14776 -10.6175 16.9712 0.0025 
10 1 -0.0335761 -0.0335781 0.00284057 0 0 0 -0.00351942 -0.0527562 0.0296586 -0.000772436 -0.00176819 -0.00148611 3.02763 7.84805 18.2468 0.0025 
244 1 -0.0288172 -0.0351321 0.00249266 0 0 0 0.0374205 0.0394073 0.0722827 0.000567054 0.000327216 -0.0070617 -6.50438 -1.33069 7.90938 0.0025 
182 1 -0.0210211 -0.0322627 0.0026011 0 0 0 -0.00409204 -0.0196296 0.005444 0.00221395 -0.000504797 -0.00146567 -14.5261 -11.8514 6.46984 0.0025 
81 1 -0.0157606 -0.033678 0.00247814 0 0 0 0.00211163 0.0473246 0.00519062 -2.62452e-05 -0.00106449 0.019691 -1.98397 0.455845 12.4767 0.0025 
291 1 -0.00873016 -0.0339802 0.00245439 0 0 0 -0.0184342 -0.0880355 0.0860838 0.00727641 0.00773123 0.0615408 31.825 -4.91198 -6.75027 0.0025 
295 1 -0.00373459 -0.0346847 0.00269367 0 0 0 -0.0871573 -0.080527 -0.0928833 -0.00251889 -0.0101115 -0.019902 -7.19539 -3.01827 0.117631 0.0025 
68 1 0.00149732 -0.0345166 0.00248101 0 0 0 -0.0622594 0.03785 -0.000142225 0.000846279 -0.000178611 0.0156933 -6.71007 15.2166 0.248205 0.0025 
234 1 0.0148019 -0.0338287 0.0024847 0 0 0 0.00282103 0.0536986 -0.133269 -0.000261408 -0.000664816 0.0126821 -10.5302 -3.19529 -13.7417 0.0025 
213 1 0.0198383 -0.0346433 0.00245332 0 0 0 0.00523783 0.0440543 0.0212608 0.0052023 -0.00117177 0.0554161 -11.5096 -2.34147 -22.8323 0.0025 
134 1 0.0248406 -0.03479 0.00251188 0 0 0 0.0392231 -0.0328906 -0.0597183 -0.000965148 -0.000977952 -0.00378837 9.597 6.00968 0.654717 0.0025 
369 1 0.0342238 -0.032882 0.00293275 0 0 0 -0.0715021 -0.117506 0.019134 0.0052486 -0.0158614 8.77794e-05 -0.227992 22.183 -13.2414 0.0025 
306 1 -0.0372637 -0.0294109 0.00250504 0 0 0 0.0494744 0.0364923 -0.0361306 -0.0188973 0.00645774 -0.0282602 5.27957 -8.59091 -13.3741 0.0025 
266 1 -0.0318118 -0.0289168 0.00254186 0 0 0 -0.0429202 0.0911104 0.025256 -0.000791945 -0.00213324 -0.00708361 -1.33562 -5.07199 -2.35809 0.0025 
113 1 -0.0258549 -0.0310132 0.00249875 0 0 0 0.0156367 0.0702019 0.077253 -0.0202576 -0.0364508 -0.0289691 -15.9929 -3.64915 -7.95488 0.0025 
265 1 -0.0125706 -0.0298276 0.00248706 0 0 0 0.128521 0.103626 -0.0898155 -0.000140357 -0.00200109 0.00927752 0.0130088 1.30973 4.34525 0.0025 
115 1 -0.00553824 -0.0300151 0.00252971 0 0 0 0.0640133 -0.0342539 -0.0426956 0.0079929 -0.0176626 -0.0241161 -2.5943 3.75027 13.6293 0.0025 
225 1 -2.16443e-05 -0.0297212 0.00266378 0 0 0 -0.0487132 -0.0207359 -0.0940261 0.00379117 -0.00527533 -0.00292157 -13.4252 -10.6594 -7.87822 0.0025 
30 1 0.00508546 -0.0302474 0.00251417 0 0 0 0.0768311 0.13317 -0.0648076 0 0 -0.00160516 -7.5075 12.5485 9.72 0.0025 
220 1 0.0105868 -0.0310167 0.00257863 0 0 0 0.141975 0.0329926 0.0858721 -0.0123827 -0.0235885 -0.00594496 13.0558 21.1959 -7.53209 0.0025 
440 1 0.0184679 -0.0297714 0.00253866 0 0 0 0.0599674 0.0615657 -0.0161846 0.0147183 -0.00739551 -0.0268817 -6.28991 3.72025 -0.498755 0.0025 
13 1 0.0240837 -0.0297762 0.0028329 0 0 0 0.0669078 -0.0993748 -0.0245386 -0.00723337 -0.00513251 -0.0165986 11.8304 3.14816 -22.3496 0.0025 
66 1 0.0289427 -0.0314559 0.00248648 0 0 0 -0.0953261 0.0588855 -0.0758202 -0.00126471 0.00823055 0.00985894 12.4243 10.8613 -0.890706 0.0025 
296 1 -0.0402953 -0.0249963 0.00248118 0 0 0 0.00287027 -0.0273856 -0.0609935 -0.00390971 0.00836978 0.00145971 -5.08562 -0.0422805 -1.21103 0.0025 
195 1 -0.027545 -0.0263095 0.00247033 0 0 0 0.0205988 0.00542171 -0.0318087 0.0188916 -0.00535862 -0.00968707 7.17508 1.56432 -2.65905 0.0025 
394 1 -0.0224607 -0.0273815 0.00248137 0 0 0 -0.0420302 0.0585852 -0.0169919 0.01244 0.0167093 0.0163015 -2.00392 1.78466 5.88318 0.0025 
434 1 -0.0175216 -0.0280994 0.00250757 0 0 0 -0.176989 -0.0512079 -0.0620139 -0.00603921 0.0254002 -0.0524634 -25.8614 1.24935 -2.27666 0.0025 
286 1 -0.00816077 -0.0257778 0.00267371 0 0 0 0.103629 0.0204389 0.0226509 -0.00450277 0.00678077 -0.00168245 -9.15965 -14.6506 -4.45155 0.0025 
76 1 0.00316891 -0.0255108 0.00270667 0 0 0 -0.0499284 0.0102644 0.151253 0 0 -0.00160516 -31.8568 -10.6475 -3.48642 0.0025 
346 1 0.0129204 -0.0266348 0.00265729 0 0 0 -0.0286703 0.0482916 0.0383393 0.015853 0.0266213 -0.000658813 7.86556 14.6786 5.42738 0.0025 
304 1 0.0276379 -0.026143 0.00253583 0 0 0 0.049538 -0.0473966 0.0756546 -0.0298794 -0.0145589 -0.035336 7.99415 12.3069 -11.1399 0.0025 
285 1 0.032749 -0.0281425 0.00258198 0 0 0 -0.0802644 -0.0356262 0.0477374 -0.00533051 0.0157253 -0.00350281 2.23997 10.1732 5.77431 0.0025 
205 1 0.0380406 -0.0284315 0.00255042 0 0 0 0.000278331 0.00423037 -0.017272 -0.00361672 -0.0048506 -0.00164813 2.51796 2.18787 -12.3748 0.0025 
365 1 -0.0347737 -0.0248578 0.0028494 0 0 0 0.0113974 -0.049011 0.104585 0.00412346 -0.0195529 -0.0714596 -8.67656 -11.0825 14.3254 0.0025 
15 1 -0.0233491 -0.022138 0.00254362 0 0 0 -0.00383265 0.0614059 -0.0162692 -0.0106456 0.012434 -0.0257702 -0.532342 14.8945 0.3504 0.0025 
421 1 -0.0183537 -0.0229784 0.00248714 0 0 0 0.0178185 -0.0354015 0.160584 0.000330676 -0.000186019 0.00598298 16.7822 11.7136 14.4355 0.0025 
374 1 -0.0136454 -0.0249477 0.00249549 0 0 0 0.0291174 -0.0783479 -0.0441225 -0.00245897 -0.00617213 -0.011371 13.5498 8.87379 -14.2976 0.0025 
334 1 -0.00510361 -0.0215439 0.00247434 0 0 0 -0.0515086 -0.0211581 -0.126479 0.0103338 -5.6183e-05 0.0111834 2.14837 14.1569 -22.1858 0.0025 
87 1 -0.00010613 -0.0214442 0.00245879 0 0 0 -0.0585327 0.0810664 0.189047 0.000213452 0.00184663 0.0386781 -12.0334 -4.952 -0.424127 0.0025 
32 1 0.00824016 -0.0247073 0.00249635 0 0 0 -0.0552961 0.0321969 -0.099656 5.73483e-05 -0.000104544 0.000779652 1.70351 -14.1286 28.3799 0.0025 
424 1 0.0178311 -0.0248285 0.00254726 0 0 0 -0.0202429 -0.0732589 0.0179238 -0.0267087 0.00580709 -0.00260248 0.507324 12.2898 7.34437 0.0025 
307 1 0.0227431 -0.0240817 0.0025157 0 0 0 -0.0404288 -0.0980107 -0.0674059 0.0279637 0.0160541 -0.022144 10.1931 -6.89206 13.7976 0.0025 
44 1 0.0408333 -0.0242992 0.00249339 0 0 0 -0.0450378 0.0668568 -0.0526887 -0.00764893 0.0107645 0.00288542 -6.37728 -9.4804 3.43884 0.0025 
58 1 -0.0426661 -0.0205883 0.0025377 0 0 0 -0.0379184 0.00599375 0.0214748 2.36291e-05 -2.35406e-05 -0.00155403 -3.09992 13.122 8.1033 0.0025 
404 1 -0.0376264 -0.0207677 0.0026564 0 0 0 -0.0351391 -0.0239126 -0.0358782 -0.0037405 -0.0187189 -0.0147255 3.96203 4.59061 -6.83607 0.0025 
187 1 -0.0287947 -0.021485 0.00246988 0 0 0 -0.0415591 -0.0653226 -0.061225 0.00120337 0.0107837 0.0329094 2.17303 4.28688 -4.16621 0.0025 
380 1 -0.0202175 -0.0179909 0.00260147 0 0 0 -0.0046063 0.0680192 -0.060881 0 0 -0.00160516 15.4759 -3.99877 4.78075 0.0025 
293 1 -0.0147537 -0.0191934 0.0027399 0 0 0 0.0656987 0.0321159 0.00653679 0 0 -0.00160516 10.1038 -4.03556 -10.3921 0.0025 
433 1 -0.0100822 -0.0211402 0.00254273 0 0 0 0.0196144 -0.0797667 -0.0188822 -0.0039699 -0.0225363 -0.0219715 -2.54551 10.0541 5.87286 0.0025 
273 1 0.00960445 -0.0187544 0.00271793 0 0 0 -0.0771658 -0.104726 0.0627684 -0.00560139 0.00422522 -0.00105467 -6.07884 0.264049 -3.44355 0.0025 
75 1 0.0136367 -0.0216833 0.00255986 0 0 0 0.00611889 -0.105226 0.149612 0.00585852 -0.00716681 -0.0803098 16.1225 -6.3665 7.60901 0.0025 
366 1 0.0188015 -0.0198912 0.00248957 0 0 0 -0.0371193 0.0410466 0.0541577 0.0183864 0.00424316 -0.0268918 -6.44805 -12.563 -3.08402 0.0025 
159 1 0.0253682 -0.018668 0.00245043 0 0 0 -0.0360413 0.0165186 0.0093086 -0.0300851 -0.00967458 0.0202618 -7.01811 4.55573 5.4808 0.0025 
149 1 0.0298634 -0.0208533 0.00248295 0 0 0 0.0187644 -0.0302385 0.0994705 -0.000568418 0.000319942 0.011751 2.31304 -10.0077 -1.37281 0.0025 
448 1 0.0377285 -0.0195982 0.00257179 0 0 0 0.0231657 0.00410561 0.0402548 0.00415845 0.00985853 -0.00508707 5.7955 2.19901 -7.4089 0.0025 
339 1 0.043206 -0.0193361 0.00258646 0 0 0 -0.036481 -0.0516549 -0.0175407 0 0 -0.00160516 -16.3517 -9.92203 -3.14448 0.0025 
231 1 -0.0448097 -0.015797 0.00255862 0 0 0 -0.0137871 -0.0181715 -0.0131001 0.00944532 0.0017201 -0.00132751 5.14983 -1.04913 10.0791 0.0025 
9 1 -0.0348957 -0.0165139 0.00247975 0 0 0 0.0958369 -0.0203116 -0.0328287 -0.00455902 0.00700786 0.0139019 14.2388 4.17382 5.87468 0.0025 
445 1 -0.0297046 -0.0150967 0.00260112 0 0 0 -0.030022 -0.0321797 -0.0428067 -0.00199195 0.0011701 -0.00145743 6.98639 4.17174 1.09469 0.0025 
6 1 -0.0253262 -0.0174941 0.00248129 0 0 0 0.0246711 -0.0195776 -0.0235871 0.0013542 -0.000589702 0.0154933 4.14206 5.47292 -2.46348 0.0025 
326 1 -0.0165083 -0.0144193 0.00268939 0 0 0 0.0106368 0.0547017 0.111862 -0.0127606 0.0127729 -0.0339469 -9.2011 8.55249 -24.5953 0.0025 
40 1 -0.00600148 -0.0162376 0.0025581 0 0 0 -0.0324342 0.0309089 0.00451343 0 0 -0.00160516 2.18506 -3.72492 1.723 0.0025 
52 1 -0.000666996 -0.0162141 0.00249365 0 0 0 0.0240863 -0.0545735 0.00947903 -4.81268e-05 0.00015478 0.00163663 -13.9827 -1.49717 -1.14461 0.0025 
405 1 0.004924 -0.0157725 0.00250623 0 0 0 -0.0457528 -0.04924 -0.0152776 -0.02581 -0.0151264 -0.00212236 -2.68425 -4.6372 -6.1215 0.0025 
379 1 0.0143789 -0.0163901 0.00245733 0 0 0 0.127567 -0.0272212 0.0203699 -0.000914538 0.000411243 0.0520999 11.5602 2.68502 -9.29762 0.0025 
20 1 0.0287271 -0.0148776 0.00254711 0 0 0 -0.061954 0.0148928 0.0192253 0.0570363 -0.0238889 -0.0204695 -0.865611 12.2999 -1.01568 0.0025 
183 1 0.0333998 -0.0169359 0.002487 0 0 0 -0.00163776 -0.0144313 0.0620472 -0.00184471 -0.00201349 0.00495227 -13.8082 11.8738 -1.93592 0.0025 
386 1 0.0401742 -0.0152539 0.0025688 0 0 0 0.0634298 -0.0217388 0.0449107 -0.00698211 0.00647263 -0.00131473 6.64172 17.984 -12.3794 0.0025 
104 1 0.0451118 -0.0145931 0.00246364 0 0 0 0.0285147 0.0574728 0.052215 0.00862796 0.00225405 0.00325866 -12.1678 2.80866 1.78913 0.0025 
196 1 -0.0460388 -0.0109575 0.00265981 0 0 0 -0.0341275 -4.97228e-05 -0.0157247 -0.000449931 0.00190588 -0.00165757 -17.0171 -14.5641 -9.60288 0.0025 
74 1 -0.0391496 -0.011195 0.00252228 0 0 0 -0.00208965 0.0517758 -0.0831553 -0.0132152 0.0139277 -0.0212824 -7.24755 0.680508 9.86459 0.0025 
449 1 -0.03384 -0.011497 0.00250588 0 0 0 -0.0244961 -0.0300247 -0.0435469 -0.00119369 -0.00141789 -0.00165702 -16.8288 5.10933 -19.8734 0.0025 
36 1 -0.0270889 -0.0108216 0.00250337 0 0 0 0.00455078 -0.00204843 0.0240773 0.00833118 -0.00691708 -0.00237174 9.47608 -7.93015 14.8525 0.0025 
331 1 -0.02265 -0.0131537 0.00252124 0 0 0 0.0184848 -0.00775511 -0.0227497 -0.000932337 -0.0105581 -0.0652947 6.87619 -3.33401 -0.300857 0.0025 
158 1 -0.0104473 -0.0134999 0.00248875 0 0 0 0.0185082 0.0965195 0.057235 0.00177563 -0.00256235 0.0004488 -5.26521 5.73525 25.7734 0.0025 
226 1 -0.00355282 -0.0117361 0.00249051 0 0 0 -0.0154834 -0.0134621 0.0775284 -0.0026441 -0.00266256 -0.000341995 0.590387 -2.47358 -1.71669 0.0025 
22 1 0.00181924 -0.0118144 0.00251819 0 0 0 -0.0418911 0.00392232 0.0399294 0.00143187 -0.00135317 -0.00347345 14.5697 4.83928 12.359 0.0025 
7 1 0.00931608 -0.0134593 0.00248802 0 0 0 0.149074 0.0224189 -0.0585766 0.0359101 0.000814225 0.00894195 -20.3126 10.5828 2.73474 0.0025 
142 1 0.018875 -0.0131976 0.00261736 0 0 0 -0.0865871 0.0607618 -0.07638 0 0 -0.00160516 -9.53026 -2.36704 -1.47534 0.0025 
2 1 0.0238744 -0.0138823 0.00252741 0 0 0 0.0260118 -0.004047 0.00865392 -0.037803 0.0237694 -0.0155303 6.87237 -16.407 -18.2962 0.0025 
313 1 0.035857 -0.0125934 0.00245407 0 0 0 0.0411492 0.0372539 -0.0646108 -0.000853393 0.00264302 0.0648104 -2.25886 -15.3054 -10.4516 0.0025 
238 1 -0.0424003 -0.00739636 0.00247715 0 0 0 0.00456801 -0.0849784 0.0524136 0.0058204 0.00196502 0.012306 17.4956 -2.68527 -15.285 0.0025 
367 1 -0.0308198 -0.007523 0.00266031 0 0 0 0.0122978 0.02128 -0.0718222 -0.00713749 0.00833497 -0.000786706 -4.36147 -10.8302 -2.26661 0.0025 
49 1 -0.0233472 -0.00750387 0.00261469 0 0 0 6.95476e-05 -0.0171479 0.0659503 -0.00455485 0.00233295 -0.00226685 -4.303 -18.3315 -5.40518 0.0025 
252 1 -0.0189752 -0.00987129 0.003034 0 0 0 -0.0168997 -0.0250802 0.0268749 0.0236592 0.0291144 -0.0160828 17.8441 -10.4894 17.8593 0.0025 
117 1 -0.0138823 -0.00989069 0.00288737 0 0 0 0.00596307 0.0175793 0.0502966 -0.0296948 -0.0562887 -0.0636352 -15.8466 -16.3798 2.8647 0.0025 
190 1 -0.00852599 -0.00887758 0.00251489 0 0 0 0.0086217 0.026957 0.0746339 0 0 -0.00160516 6.61955 15.1344 14.8233 0.0025 
240 1 0.0064285 -0.009407 0.00255437 0 0 0 0.209687 -0.0492634 0.0441433 -0.00097528 0.00772181 -0.00174465 -9.35507 -9.28401 11.008 0.0025 
24 1 0.0115382 -0.00818067 0.00252316 0 0 0 -0.034883 0.0616954 9.25547e-05 0 0 -0.00160516 10.8921 3.09812 9.95703 0.0025 
233 1 0.0168021 -0.00858197 0.00259551 0 0 0 0.00498002 0.0283299 0.0547697 -0.0250779 0.00234519 -0.00268221 5.01103 13.128 -0.773454 0.0025 
338 1 0.0217447 -0.0090833 0.0025627 0 0 0 0.154266 0.0138168 0.0100192 0.0250779 -0.00234519 -0.000528101 0.676302 1.0665 1.41469 0.0025 
337 1 0.0303674 -0.00959035 0.00270082 0 0 0 -0.022878 -0.0257586 0.028794 0 0 -0.00160516 -11.9772 10.1374 -6.35276 0.0025 
237 1 0.037887 -0.00752998 0.0025055 0 0 0 -0.0412756 -0.00323556 -0.0129365 0 0 -0.00160516 -12.9305 4.23518 -1.42516 0.0025 
426 1 0.0420981 -0.0104667 0.00252087 0 0 0 0.0226833 -0.00123001 -0.0527505 -0.0092884 -0.00421442 -0.00162503 -7.35623 4.79737 5.26766 0.0025 
362 1 0.0467059 -0.00856961 0.00251202 0 0 0 0.0330419 0.0395865 0.068945 0.00939356 0.00371123 -0.00210696 -0.494262 1.7647 -9.0021 0.0025 
292 1 -0.0471432 -0.00586645 0.00258198 0 0 0 0.0173972 0.043296 -0.0383515 -0.00404951 -0.00987091 -0.0201022 3.96482 1.27961 5.85393 0.0025 
949 1 -0.0361929 -0.00700834 0.00249249 0 0 0 -0.0712254 -0.0445759 0.0118766 0.00297659 -0.000988796 -0.000270034 -4.88551 3.86988 17.8465 0.0025 
342 1 -0.0269299 -0.00379395 0.00248428 0 0 0 0.122417 0.0797702 -0.0484808 -0.0268408 -0.0151342 -0.0246782 -3.68484 -1.64446 -3.478 0.0025 
328 1 -0.0166814 -0.00530061 0.00249179 0 0 0 -0.0539835 0.00858311 -0.0516876 0.000274626 1.79551e-05 0.00389909 -5.07183 3.35216 -0.569312 0.0025 
61 1 -0.00388481 -0.00668982 0.00264158 0 0 0 -0.0653179 -0.0454567 -0.144723 0.0260856 -0.0255754 -0.0111947 14.2346 12.7203 4.52613 0.0025 
347 1 0.00222253 -0.00674333 0.00245069 0 0 0 -0.0825653 -0.0793106 0.0733547 0.0128614 -0.00645846 0.0459531 7.76197 2.71101 21.8279 0.0025 
202 1 0.00747036 -0.00434447 0.00260231 0 0 0 0.0380438 0.0498933 0.0538399 0 0 -0.00160516 1.31822 4.57102 3.89238 0.0025 
80 1 0.0174472 -0.00361368 0.00249584 0 0 0 -0.0529317 0.0281911 0.0454838 -0.000306569 -0.00654883 -0.00227624 -1.29225 -7.65116 -4.76282 0.0025 
92 1 0.0330541 -0.00528482 0.0025131 0 0 0 0.0367116 0.048479 -0.0189499 -0.01033 -0.0163459 -0.00235671 -10.8238 -10.582 0.598546 0.0025 
305 1 0.045716 -0.00363889 0.00264144 0 0 0 -0.00309299 0.00112676 -0.0243092 0.00286741 -0.00577629 -0.00112957 -6.52767 -0.865566 -1.81155 0.0025 
945 1 -0.0429978 -0.00230666 0.00251705 0 0 0 -0.0108782 0.0587559 0.0145037 0.00118978 -0.0245174 -0.00528646 3.97645 -2.63763 1.24868 0.0025 
1341 1 -0.0376615 -0.00139985 0.00252053 0 0 0 -0.0187698 -0.0198264 -0.0282661 0 0 -0.00160516 -0.672885 16.3305 6.08817 0.0025 
98 1 -0.0327365 -0.00278955 0.00266658 0 0 0 0.0179162 0.0575216 -0.00373111 -0.0102858 -0.0124791 -0.00438432 -3.98489 3.43173 11.9414 0.0025 
1337 1 -0.0212432 -0.00296311 0.00251619 0 0 0 0.0422058 0.0715236 -0.0128678 -0.0084806 -0.00908534 -0.0139423 1.54064 7.79906 -1.40885 0.0025 
920 1 0.00474287 -4.58366e-05 0.00737295 0 0 0 0.0584363 -0.00572083 0.0404865 0.00271944 -0.000807088 -0.000754082 -2.68042 -1.23759 -24.6024 0.0025 
278 1 -0.0120177 -0.00323511 0.00247221 0 0 0 -0.014901 -0.00807229 0.01898 -0.00381927 -0.0108727 0.0286788 -1.06068 4.78528 -0.559986 0.0025 
250 1 -0.00281209 -0.00115897 0.00250709 0 0 0 0.107376 0.00202202 0.0894446 0.0133972 0.00272806 -0.0154642 6.07873 5.05192 13.3821 0.0025 
21 1 0.00283963 -0.00164091 0.00258983 0 0 0 -0.16679 -0.0605328 -0.195635 0 0 -0.00160516 -0.138894 -5.17056 -0.779183 0.0025 
154 1 0.0123586 -0.00314869 0.00263804 0 0 0 -0.193808 0.0213821 -0.0549106 -0.0016664 -0.00731407 -0.0111736 -3.04084 2.23731 13.0254 0.0025 
971 1 0.0223675 -0.0026671 0.00256235 0 0 0 -0.0381682 0.0636358 -0.0195226 0 0 -0.00160516 -16.9101 -8.42282 -11.2396 0.0025 
1046 1 0.0282261 -0.0036249 0.00248944 0 0 0 0.00544401 -0.0445767 0.0113784 9.1803e-05 0.000339608 0.00543079 -1.80685 7.50099 21.8232 0.0025 
368 1 0.0358411 -0.00116408 0.00251174 0 0 0 0.0285241 -0.0212576 -0.0909394 -0.000245482 -0.00353491 0.000223279 0.647922 -3.70913 9.07261 0.0025 
425 1 0.0405225 -0.00313785 0.00250808 0 0 0 0.0179697 0.0436176 -0.0133838 -0.002988 -0.00360071 -0.00171569 12.4634 -2.08755 -11.5722 0.0025 
73 1 -0.00479081 -0.0470867 0.0069025 0 0 0 -0.142611 0.0356096 -0.166647 0.00672776 -0.0109754 0.000262842 -10.8516 -20.9834 7.04521 0.0025 
241 1 0.00984603 -0.0463504 0.00319105 0 0 0 -0.0163059 0.0953735 -0.118506 -0.000371826 -0.000148848 -0.00605668 -8.0092 16.0387 -18.9573 0.0025 
352 1 -0.0115463 -0.0460768 0.00589308 0 0 0 -0.0310244 -0.0372201 -0.0197238 -0.00338627 -0.0166576 0.0155047 -0.310817 9.70549 -11.9619 0.0025 
444 1 -0.00717529 -0.042758 0.00628351 0 0 0 0.052191 0.0910852 -0.140837 -0.00672776 0.0109754 -0.00347316 -2.53078 -18.9345 8.58856 0.0025 
377 1 0.00393422 -0.0427789 0.00682354 0 0 0 0.131196 0.0727315 0.0340398 0.00249524 0.00502509 0.00483891 4.75692 -12.2639 -15.7546 0.0025 
411 1 -0.0185249 -0.0431362 0.00678388 0 0 0 -0.00711004 -0.164842 -0.0413416 0 0 -0.00160516 14.8007 14.2741 -16.4053 0.0025 
8 1 -0.013804 -0.041596 0.00612499 0 0 0 0.0237093 0.0398371 0.0154634 -0.0128202 0.00308095 0.0120688 -27.7089 -5.84088 -6.793 0.0025 
60 1 0.00903136 -0.041726 0.00685109 0 0 0 0.00133326 -0.0741179 -0.0153959 -0.00580566 0.0212277 -0.00852175 -1.18294 -2.06272 -6.6337 0.0025 
388 1 0.0136518 -0.0390312 0.00652908 0 0 0 0.0689344 0.0788428 0.0409896 0 0 -0.00160516 -7.67659 -13.632 2.76416 0.0025 
102 1 -0.0289761 -0.0375838 0.00683308 0 0 0 0.0421108 0.0488737 0.00448924 -0.000347315 -0.00316442 0.00466545 -3.40521 -6.39866 -7.20581 0.0025 
16 1 -0.0183397 -0.036039 0.00605463 0 0 0 0.095316 -0.0191157 -0.0504165 -0.000550416 -0.00176553 -0.00483171 -4.50568 0.491599 16.494 0.0025 
301 1 -0.00979264 -0.0384787 0.00681341 0 0 0 -0.065233 -0.0659014 -0.0200893 -0.00601205 -0.00108339 -0.0114963 -18.1351 6.01437 -17.9578 0.0025 
197 1 -0.00451902 -0.037713 0.00675051 0 0 0 -0.115358 0.110195 -0.0974086 -0.0179392 0.00625461 -0.00158448 1.08316 -14.58 -5.36294 0.0025 
70 1 0.000401136 -0.0370021 0.00689481 0 0 0 -0.0217844 0.0308984 -0.0436805 0.0280167 0.0139737 0.0206038 -19.6244 -12.6031 13.4551 0.0025 
589 1 0.0171816 -0.0354835 0.00658277 0 0 0 0.0850362 0.0802807 0.0961701 -0.00664181 -0.00181478 0.00768096 -13.9049 6.45315 15.2231 0.0025 
332 1 0.0214177 -0.0384431 0.00537504 0 0 0 0.128123 0.0961514 -0.126006 0 0 -0.00160516 6.18769 21.1974 14.0166 0.0025 
186 1 0.0279555 -0.0384492 0.00645753 0 0 0 -0.079427 -0.024514 0.0222955 -0.00921775 0.0488318 0.0249054 33.4965 16.5155 17.3544 0.0025 
348 1 -0.0249262 -0.0346406 0.00581956 0 0 0 0.0106911 0.0112939 0.0406357 -0.0109291 0.00788525 -0.016717 6.57639 -5.41155 23.7046 0.0025 
378 1 -0.0129312 -0.0342903 0.00661 0 0 0 0.0237818 0.0996805 -0.0952132 0 0 -0.00160516 -2.77798 -11.0934 -2.38475 0.0025 
170 1 0.00748682 -0.0337861 0.00533495 0 0 0 0.0478241 -0.0800869 0.037296 -0.00347032 -0.00303282 0.0017883 10.4463 -8.6029 -8.02347 0.0025 
357 1 0.01245 -0.033976 0.00721101 0 0 0 -0.136074 0.03395 0.0133949 0 0 -0.00160516 4.90482 -27.3979 -4.59622 0.0025 
194 1 0.0268734 -0.0330843 0.00674026 0 0 0 0.106844 -0.0767951 0.0504681 0.0102524 0.0076389 -0.00596979 -6.80748 -24.8464 -13.6331 0.0025 
280 1 0.0320174 -0.0349156 0.00698756 0 0 0 -0.0586025 0.075722 -0.012738 0 0 -0.00160516 22.1916 7.00417 -17.2858 0.0025 
11 1 -0.0346156 -0.0302556 0.00661655 0 0 0 -0.0432047 0.0519 0.0423375 0.0188973 -0.00645774 0.0250499 3.02959 -0.126935 -0.173968 0.0025 
314 1 -0.0294103 -0.0316417 0.00601314 0 0 0 0.0159462 -0.0723525 -0.0250308 0.010038 0.0124342 -0.00834226 -6.12521 0.928877 3.07944 0.0025 
152 1 -0.0164282 -0.0306412 0.00660883 0 0 0 0.0899353 -0.077674 -0.123025 0.0167599 -0.0406515 0.019166 2.14965 -6.06336 -4.73784 0.0025 
160 1 0.00283658 -0.0319638 0.00663941 0 0 0 0.0753682 0.110441 0.0216571 0.00103623 -0.00152339 -0.00195376 6.64505 4.4486 7.76674 0.0025 
320 1 0.016191 -0.0305654 0.00687964 0 0 0 0.101254 -0.0429833 0.0395023 -0.0318618 0.0151128 -0.0093851 -13.378 5.18337 12.9247 0.0025 
262 1 0.0213948 -0.0321552 0.00653641 0 0 0 0.0203093 -0.1354 -0.00167618 0 0 -0.00160516 0.036303 2.29848 22.811 0.0025 
215 1 0.0307794 -0.0299368 0.00698863 0 0 0 0.0461996 -0.0104474 0.0914636 -0.00352932 -6.28194e-06 -0.00159101 -7.24198 2.91797 0.058934 0.0025 
223 1 0.0357647 -0.0300484 0.0067504 0 0 0 -0.00838326 -0.0672446 0.0171445 0.00361123 0.000142356 -0.00141459 11.9711 -4.30843 -5.81253 0.0025 
260 1 -0.0390605 -0.027085 0.0068257 0 0 0 0.0295629 0.030034 0.00738256 0.0432472 -0.0162115 0.0138014 -1.79509 -4.75271 -5.85604 0.0025 
294 1 -0.0304514 -0.0261845 0.00648579 0 0 0 0.0339645 0.0895918 0.0187419 -0.0215846 0.00293612 0.0354671 -11.7097 13.1669 -15.9478 0.0025 
359 1 -0.025564 -0.0282446 0.00660909 0 0 0 0.0396987 -0.0655319 0.0466999 0.00718105 0.0149462 0.0347716 1.53431 2.83632 -0.852575 0.0025 
288 1 -0.0166205 -0.0254777 0.00665585 0 0 0 0.0167546 0.0825595 -0.0053084 -0.000422229 -0.0231534 0.00360092 -9.59312 -0.148083 11.0389 0.0025 
350 1 -0.00645561 -0.0279666 0.00696257 0 0 0 -0.0112198 -0.0164094 0.00160317 -0.00349013 0.0108819 0.0209831 -11.17 10.2154 24.4119 0.0025 
164 1 -0.00275065 -0.0257238 0.00386879 0 0 0 0.0439752 -0.0309054 -0.0547505 -0.00439668 0.00520789 -0.00131323 4.24779 0.918366 -3.14161 0.0025 
441 1 0.00819422 -0.0286162 0.0062776 0 0 0 0.0621044 -0.010943 0.103503 -0.00190543 -0.00227782 -0.00580652 7.38813 -27.423 -3.69876 0.0025 
277 1 0.0153777 -0.0256252 0.00690568 0 0 0 0.0757791 -0.00465825 0.0374864 -9.63122e-05 -0.000525478 -0.00160515 -19.2366 -41.241 3.46025 0.0025 
323 1 0.0209518 -0.0269478 0.00616266 0 0 0 -0.018278 0.0580925 0.00961379 -0.00800304 -0.0134974 0.0137994 4.91586 10.184 -23.5756 0.0025 
508 1 0.0260222 -0.0280976 0.00709736 0 0 0 -0.0431154 -0.00553043 -0.0257509 0.0178847 -0.00732353 0.000846254 21.324 -4.88434 13.2146 0.0025 
26 1 0.0392919 -0.0263543 0.00698935 0 0 0 -0.0625134 -0.0127327 -0.0786362 0 0 -0.00160516 -5.84999 2.89207 -1.24069 0.0025 
372 1 -0.0405472 -0.0223476 0.00671071 0 0 0 -0.0461539 -0.0636371 0.0296151 -0.00740433 0.0286966 -0.00197389 8.55743 2.23252 -8.40726 0.0025 
192 1 -0.0263139 -0.0231886 0.00657968 0 0 0 0.00131394 0.0243001 0.0531247 -0.00383468 0.000899396 -0.00172585 -4.22442 2.47995 13.0331 0.0025 
163 1 -0.0214872 -0.0244559 0.0065208 0 0 0 0.0364371 -0.00283116 0.0154514 -0.00413292 -0.00847146 0.0219285 6.03784 0.084584 -11.4437 0.0025 
145 1 -0.0130141 -0.0220651 0.00650428 0 0 0 0.00314022 -0.0146175 -0.00695385 0.0258159 0.0386873 -0.0112518 -14.1453 -10.4803 20.052 0.0025 
165 1 -0.0075307 -0.0216099 0.00681734 0 0 0 -0.0393263 -0.058243 -0.000368235 -0.00891571 8.05768e-05 0.0127364 13.4814 -22.6396 -6.68232 0.0025 
219 1 0.0106184 -0.0220686 0.00647187 0 0 0 0.0411482 -0.108739 0.0262178 -0.0255017 -0.00475388 0.034366 -2.07588 6.0604 10.4451 0.0025 
269 1 0.0212279 -0.0218141 0.00670248 0 0 0 -0.154165 0.0745815 -0.0348301 -0.00509592 -0.0428098 0.00503373 -25.0655 -10.652 16.7508 0.0025 
391 1 0.02613 -0.0225294 0.0058281 0 0 0 -0.106246 -0.0583541 -0.0525833 -0.0124957 -0.0392636 -0.00329125 -4.4254 -17.3359 -21.4243 0.0025 
435 1 0.030861 -0.0244611 0.00590165 0 0 0 -0.0414707 -0.0535247 -0.0817699 0.0132689 0.0131415 0.0146 -11.6595 -10.997 16.5315 0.0025 
132 1 0.0355568 -0.0240122 0.00331063 0 0 0 -0.0495116 0.0539994 -0.102598 -0.00792052 -0.0172908 0.00207084 11.7249 4.88312 -1.69098 0.0025 
439 1 -0.0436874 -0.0183108 0.00692239 0 0 0 -0.0248351 -0.0921199 0.014704 -0.0147485 -0.00154085 -0.0214072 11.0073 16.1534 -4.18467 0.0025 
382 1 -0.0331268 -0.0205687 0.00477786 0 0 0 -0.0453067 -0.0348798 -0.0810375 0.0184891 0.0026376 0.0152251 8.94793 2.79536 -9.4984 0.0025 
371 1 -0.0280928 -0.0185098 0.00653179 0 0 0 0.102064 -0.011577 0.0454676 -0.00335133 -0.00405786 -0.0016932 -7.51917 18.4604 -8.86982 0.0025 
120 1 -0.0229459 -0.0191684 0.00682542 0 0 0 0.122132 -0.0570279 -0.0821307 -0.00771843 -0.00361646 -0.00934841 -3.04412 -19.3171 -30.9469 0.0025 
201 1 -0.0181281 -0.0204524 0.006803 0 0 0 -0.0161427 -0.134477 0.0861635 0.00831088 -0.00219908 -0.00207348 0.739402 11.6194 -11.3608 0.0025 
41 1 -0.00270299 -0.0196473 0.00642013 0 0 0 0.0330967 -0.00658224 -0.0847158 -0.0222121 0.0247612 -0.00265185 -18.8459 11.4398 0.00365907 0.0025 
353 1 0.00219299 -0.0182466 0.00629439 0 0 0 0.0579421 -0.0933083 -0.246793 7.13548e-05 0.000157184 -0.00137371 4.27113 23.8424 -10.1027 0.0025 
383 1 0.00496155 -0.0208159 0.00286282 0 0 0 0.0906467 0.0511224 -0.122456 0 0 -0.00160516 8.3925 4.0764 -7.97885 0.0025 
199 1 0.0162397 -0.0207095 0.00665906 0 0 0 0.0706 0.0529306 -0.0679417 0.00706091 0.00367767 0.072233 -14.1411 36.3515 1.66016 0.0025 
729 1 0.0332276 -0.0198435 0.00654292 0 0 0 0.102376 -0.079034 -0.017674 -0.00964225 -0.0107066 0.00188162 5.8865 9.7917 10.0959 0.0025 
282 1 0.0406792 -0.021272 0.00649029 0 0 0 0.183394 -0.0203633 -0.0348743 0 0 -0.00160516 21.0178 1.32535 -2.58478 0.0025 
121 1 -0.0399877 -0.0165148 0.00367018 0 0 0 0.00324542 -0.0335456 -0.0662066 -0.0118659 0.022095 0.00489302 15.2267 7.0788 -13.573 0.0025 
361 1 -0.0323212 -0.0158603 0.00691503 0 0 0 0.00649822 0.00359301 0.0473427 0.00403504 -0.0206029 -0.00926401 10.0124 -24.9172 3.47482 0.0025 
436 1 -0.0251103 -0.0145103 0.00658413 0 0 0 0.00685242 0.0339322 -0.0241928 -0.0269208 -0.0179171 0.0536237 7.4847 16.0749 -15.1824 0.0025 
236 1 -0.0196812 -0.0142931 0.00686144 0 0 0 0.0601716 0.0242864 0.156681 -0.00698809 0.00739206 -0.0204386 -37.1709 13.9616 10.2739 0.0025 
23 1 -0.00987089 -0.0173014 0.00568404 0 0 0 -0.0506955 0.0107058 -0.0679395 0.00208874 0.0226576 0.0188492 -2.17125 -3.29694 12.5829 0.0025 
135 1 0.00720627 -0.0180313 0.00726858 0 0 0 0.00539394 -0.250654 -0.0267944 0 0 -0.00160516 -13.4282 -23.261 -28.2591 0.0025 
54 1 0.0170313 -0.0155734 0.00683412 0 0 0 0.0787039 -0.020678 0.0104644 0 0 -0.00160516 2.86513 7.56962 -4.8892 0.0025 
140 1 0.0220472 -0.0169829 0.00596075 0 0 0 0.0317618 -0.00986481 -0.0538955 -0.00312521 0.0309377 0.00577246 14.074 13.7661 -12.0586 0.0025 
356 1 0.0282463 -0.0180913 0.00642927 0 0 0 0.0453974 -0.0208849 -0.0778238 0.0519765 0.0502943 0.0567915 -11.6575 -3.08621 -19.1694 0.0025 