ITEM: TIMESTEP
15200
ITEM: NUMBER OF ATOMS
1800
ITEM: BOX BOUNDS mm mm mm
-0.05 0.05
-0.05 0.05
0 0.15
ITEM: ATOMS id type x y z ix iy iz vx vy vz fx fy fz omegax omegay omegaz radius 
410 1 -0.00867639 -0.0465208 0.00258102 0 0 0 0.0574208 0.075877 0.0643582 0 0 -0.00160516 -29.8933 19.8124 -4.44503 0.0025 
255 1 -0.00184538 -0.047404 0.00251721 0 0 0 0.0331459 -0.163248 -0.0224474 0 0 -0.00160516 8.39682 10.0545 5.77574 0.0025 
150 1 0.00347125 -0.0473031 0.00259219 0 0 0 0.0736762 0.116982 -0.144714 0 0 -0.00160516 -11.5772 -15.487 0.625446 0.0025 
217 1 -0.015956 -0.0440059 0.00262825 0 0 0 0.0421195 -0.0290611 0.0383047 0 0 -0.00160516 8.05858 9.64335 -6.6403 0.0025 
218 1 -0.00450131 -0.0430787 0.00250693 0 0 0 0.0275933 -0.039648 0.133078 0 0 -0.00160516 -3.54007 19.0249 3.39595 0.0025 
28 1 0.000819449 -0.0429542 0.00257805 0 0 0 0.0891742 -0.0541404 -0.105864 0 0 -0.00160516 -3.09423 31.7791 -4.13142 0.0025 
141 1 0.00591128 -0.0429002 0.00246968 0 0 0 0.107375 0.0586026 0.0658621 -0.00168048 -0.000204934 0.0322535 -19.7939 12.0983 -3.51856 0.0025 
279 1 0.0161032 -0.0446376 0.00254316 0 0 0 0.0309429 0.0454202 0.0469678 0.00086261 5.18004e-05 -0.00687713 -18.1955 10.711 7.91139 0.0025 
413 1 -0.0262059 -0.0395908 0.00259371 0 0 0 0.0306772 0.0203809 -0.050154 0 0 -0.00160516 -4.39039 -1.37313 0.161622 0.0025 
37 1 -0.0210594 -0.0425616 0.00262146 0 0 0 0.0467471 -0.0409075 0.0452797 0 0 -0.00160516 -1.73205 0.688834 -1.51403 0.0025 
18 1 -0.0108868 -0.0419323 0.00248101 0 0 0 -0.099582 -0.00950271 0.0335311 0.000824384 0.000169139 0.015226 -5.22286 4.0676 -2.1474 0.0025 
230 1 0.0116193 -0.042202 0.00248252 0 0 0 0.103284 0.0633474 0.0664278 -0.000584418 -0.000417364 0.0127578 15.0159 -15.1727 -4.36516 0.0025 
409 1 0.0205625 -0.0423653 0.00249608 0 0 0 0.069273 -0.0352206 0.0367615 0.00596209 -0.00543319 -0.00056827 2.65977 14.829 8.84329 0.0025 
389 1 0.0253104 -0.0402114 0.00248902 0 0 0 0.0870168 0.00905619 0.205539 -0.00645411 0.00959594 0.00292795 -8.4907 4.92879 -5.79127 0.0025 
95 1 -0.0216097 -0.037319 0.00255227 0 0 0 -0.0782343 0.0248319 0.00436371 -0.00248428 -0.0122418 -0.00318636 -1.13713 -13.0916 -9.48782 0.0025 
103 1 -0.0168569 -0.0388933 0.00254755 0 0 0 -0.0339111 -0.000341131 -0.00492266 0 0 -0.00160516 14.0609 -4.08837 5.53201 0.0025 
438 1 -0.0119506 -0.0370458 0.00262178 0 0 0 -0.0126981 -0.0507924 0.146751 0.0349791 -0.0289442 -0.00296841 -5.47388 -11.1449 -17.9214 0.0025 
167 1 -0.00690254 -0.0382183 0.00249234 0 0 0 0.0222793 -0.0713695 -0.0522101 -0.00813275 -0.00237331 -0.0162386 -12.7643 -2.56118 -0.595054 0.0025 
85 1 -0.00192256 -0.038768 0.00288433 0 0 0 0.00687761 0.075228 -0.0451503 0 0 -0.00160516 15.9109 -7.07236 4.47079 0.0025 
268 1 0.00578972 -0.0377608 0.00256112 0 0 0 0.110317 0.079584 0.191647 0.00176744 0.00113247 -0.013572 -5.10519 0.835464 15.043 0.0025 
126 1 0.0108128 -0.0368752 0.00244185 0 0 0 -0.0173278 -0.0621399 0.066245 -0.00213119 0.00404709 0.0898736 17.5038 -5.8485 -1.50045 0.0025 
101 1 0.0167161 -0.0391975 0.00264622 0 0 0 -0.0287728 -0.093088 0.0950195 -0.0060097 0.0054754 -0.0013695 10.4349 3.60903 14.5647 0.0025 
309 1 0.0298372 -0.0366728 0.00258393 0 0 0 0.0790851 0.00155271 0.0114335 0 0 -0.00160516 -10.0581 -16.2648 10.4089 0.0025 
10 1 -0.0336451 -0.0335061 0.00328215 0 0 0 -0.0125172 0.0445276 -0.0144955 0 0 -0.00160516 0.078896 11.1674 6.9454 0.0025 
244 1 -0.0289449 -0.0353781 0.0025561 0 0 0 -0.0234509 -0.0251562 -0.0328599 -0.000733888 -0.012063 -0.0136506 4.93477 9.90517 -1.84885 0.0025 
182 1 -0.0204986 -0.0324818 0.00296476 0 0 0 0.0301467 0.0456813 -0.108222 -0.0149852 0.0126575 -0.0230484 -9.01065 -16.4124 -9.14554 0.0025 
81 1 -0.0157402 -0.0338568 0.00252642 0 0 0 -0.0743139 0.0447709 0.0235083 -0.0340151 -0.00487932 -0.00266768 -4.93833 2.11992 8.04458 0.0025 
291 1 -0.00849859 -0.0334286 0.00251691 0 0 0 0.0970835 -0.0105263 -0.0359956 -0.0224744 0.00156796 -0.00196907 28.5167 -5.4881 -6.49888 0.0025 
295 1 -0.00356228 -0.0340216 0.00261097 0 0 0 -0.0691317 -0.114465 0.00360384 0.0224744 -0.00156796 -0.00124125 -13.0166 -12.4735 -23.2133 0.0025 
68 1 0.00169293 -0.034649 0.00254858 0 0 0 -0.0571834 0.0232311 -0.0447804 0 0 -0.00160516 10.7646 5.26701 -7.39071 0.0025 
234 1 0.0149503 -0.0334921 0.00262784 0 0 0 0.00304983 0.0348526 0.161495 -0.0116925 0.00121783 -0.00196238 -13.4778 21.9608 1.43998 0.0025 
213 1 0.0198891 -0.0341403 0.00256886 0 0 0 -0.0189372 -0.091884 -0.120873 0.00170116 -0.0145464 -0.0211903 -11.2721 -4.34548 10.0385 0.0025 
134 1 0.0250043 -0.0342834 0.00247513 0 0 0 -0.194568 -0.0380003 -0.0144998 -0.000254883 -0.00193918 0.018396 3.16311 13.3008 -15.6573 0.0025 
369 1 0.0340483 -0.0325605 0.00309052 0 0 0 0.00153515 -0.0409556 0.0324155 0.0102679 0.00848251 -0.0164885 10.3684 6.7776 -17.9834 0.0025 
306 1 -0.037177 -0.0295678 0.00245823 0 0 0 -0.0950886 0.0576953 0.0819037 0.00216144 -0.00115556 0.0523616 4.51893 4.52087 -24.4213 0.0025 
266 1 -0.0312252 -0.028991 0.00250385 0 0 0 -0.0423407 0.137758 -0.0269066 -0.0025006 -0.00818673 -0.0139471 -3.50592 16.2228 -14.3864 0.0025 
113 1 -0.0255509 -0.0309758 0.00252667 0 0 0 -0.0767575 -0.0411486 -0.0306217 0 0 -0.00160516 2.66285 -1.28707 -5.55269 0.0025 
265 1 -0.0126195 -0.0299991 0.00251968 0 0 0 0.0531826 -0.049665 0.0748772 0.0205125 0.0279528 -0.00222871 9.63038 14.8985 7.50967 0.0025 
115 1 -0.00529976 -0.0293267 0.0025262 0 0 0 0.0104215 -0.0674994 -0.0568707 0 0 -0.00160516 3.15134 11.3884 14.7616 0.0025 
225 1 -5.87613e-05 -0.0299119 0.00262798 0 0 0 0.064956 0.00335291 -0.0261889 0 0 -0.00160516 -22.0293 -21.8801 -15.4075 0.0025 
30 1 0.00509275 -0.0308075 0.00250357 0 0 0 -0.0664135 0.00641814 0.0157234 0 0 -0.00160516 -12.1814 9.53617 19.5054 0.0025 
220 1 0.0100076 -0.0319288 0.00253134 0 0 0 0.0209802 0.15483 0.0109887 0.00919124 0.00648367 -0.0124 31.7106 -4.38853 -6.70652 0.0025 
440 1 0.0183769 -0.0292153 0.00248922 0 0 0 -0.00951739 0.0402049 0.0238243 -0.004769 -0.0237407 -0.0546581 -15.2343 -21.2144 2.42289 0.0025 
13 1 0.0237252 -0.0289178 0.00270186 0 0 0 0.108797 -0.00652705 0.00772782 0 0 -0.00160516 -1.02256 17.8034 -13.0237 0.0025 
66 1 0.0285133 -0.0304247 0.00286795 0 0 0 -0.103575 -0.0904218 -0.0181595 -0.00627551 -0.00488382 -0.0007858 21.9922 0.0163193 -4.40146 0.0025 
205 1 0.0378447 -0.0287122 0.00278078 0 0 0 0.0780758 0.123271 -0.0471984 -0.00273003 -0.0014496 -0.00514742 14.4091 -13.9908 -12.1783 0.0025 
296 1 -0.0403953 -0.0250306 0.00255725 0 0 0 -0.0384767 -0.0489063 0.0315538 0.0183515 0.0122519 -0.00241487 -4.87262 -11.2063 -3.10178 0.0025 
365 1 -0.0345517 -0.025009 0.00279931 0 0 0 -0.141341 0.019319 0.0859285 0 0 -0.00160516 0.180289 -7.03504 27.7741 0.0025 
195 1 -0.0273847 -0.0257017 0.00248966 0 0 0 0.0975623 -0.0961734 -0.0132844 -0.000237625 0.000264551 0.00550689 -2.53844 2.20012 -16.588 0.0025 
394 1 -0.0225009 -0.0268718 0.00262209 0 0 0 -0.0676453 0.0659383 0.0238604 3.29613e-05 -0.00011661 -0.00159787 -3.04152 4.37629 3.42487 0.0025 
434 1 -0.0177059 -0.0283193 0.0025785 0 0 0 -0.0319083 0.0257137 0.097827 0 0 -0.00160516 -9.29101 -13.855 15.8304 0.0025 
286 1 -0.00921137 -0.0260948 0.00258103 0 0 0 -0.018797 0.0340274 0.0670477 0 0 -0.00160516 -2.65044 -18.2929 3.92067 0.0025 
346 1 0.0133103 -0.0280424 0.00270384 0 0 0 -0.0230856 0.160148 -0.0782328 -0.0076216 0.00611849 -0.0131761 31.0388 11.421 11.4305 0.0025 
304 1 0.0280106 -0.0251404 0.00260773 0 0 0 -0.0188396 -0.044894 0.15111 0 0 -0.00160516 -9.79535 -10.417 -28.2832 0.0025 
285 1 0.0325606 -0.0275401 0.0024917 0 0 0 0.0265578 -0.0130413 -0.0164697 0.00622543 0.00513813 0.00275936 -6.07873 7.9867 0.982102 0.0025 
15 1 -0.023718 -0.022025 0.00252365 0 0 0 0.0470884 0.145877 0.0988723 -3.29613e-05 0.00011661 -0.00161245 -40.6683 24.2768 -8.58134 0.0025 
421 1 -0.0186898 -0.0229007 0.00259984 0 0 0 0.112202 -0.0509368 0.0490091 0.00378186 0.0035002 -0.0128036 -3.39309 11.5165 15.0681 0.0025 
374 1 -0.0140745 -0.0247962 0.00278618 0 0 0 0.0226489 0.0148157 0.00397753 0.00320585 -0.00148261 -0.0015603 27.5825 5.62991 -18.3731 0.0025 
334 1 -0.00539446 -0.0216568 0.00255679 0 0 0 -0.032252 0.00524147 -0.0431309 0.0177432 -0.0230554 -0.0322997 -5.23465 13.4125 -2.7677 0.0025 
87 1 0.000553883 -0.022487 0.00249264 0 0 0 -0.0636803 0.0668166 0.0975399 -0.00805232 -0.00127859 -0.0142579 6.39669 -3.01118 -0.640074 0.0025 
32 1 0.00923144 -0.0243413 0.00258534 0 0 0 -0.0433127 0.00660697 0.0420393 0 0 -0.00160516 -3.55091 -5.40663 37.7741 0.0025 
424 1 0.0176747 -0.0240715 0.0024702 0 0 0 0.0894038 -0.202133 -0.0721407 0.0286459 -0.0189176 0.0318136 2.11228 -8.48743 -3.76701 0.0025 
307 1 0.0228308 -0.0239524 0.00250318 0 0 0 -0.123683 -0.0130257 0.0501894 0 0 -0.00160516 14.028 -6.37121 19.893 0.0025 
44 1 0.0410324 -0.023795 0.00249021 0 0 0 -0.00575462 -0.0411516 0.0498285 6.87066e-05 0.000282324 0.00420612 -3.75319 2.6209 4.7127 0.0025 
58 1 -0.042769 -0.0206193 0.00254592 0 0 0 -0.0483405 0.00653158 0.00686754 -0.015608 0.00566489 -0.028314 -8.8003 8.2722 11.5081 0.0025 
404 1 -0.0375886 -0.0208598 0.00257778 0 0 0 0.00955419 0.0058693 0.0361867 -0.0126255 -0.0214678 -0.0022884 -3.7089 4.04617 -8.11858 0.0025 
187 1 -0.0285835 -0.0208245 0.00252036 0 0 0 0.0863685 -0.105118 -0.106474 0.0217933 -0.0112456 -0.0366212 -2.86181 0.535453 -0.988574 0.0025 
380 1 -0.0201351 -0.0181198 0.00248089 0 0 0 -0.051928 -0.124981 -0.107099 0.000316487 0.00193424 0.0173946 17.025 11.3321 6.22609 0.0025 
293 1 -0.0146007 -0.0186982 0.00292677 0 0 0 0.0411962 0.00573689 -0.0420472 -0.0343041 0.0176395 0.00256198 3.58821 -26.0109 -7.94359 0.0025 
433 1 -0.0103332 -0.0211871 0.00250277 0 0 0 0.0582555 -0.0668307 0.0157133 -0.00179091 -0.0128194 -0.00663686 2.62459 0.325639 0.559013 0.0025 
273 1 0.00913821 -0.0187996 0.0028117 0 0 0 0.0117537 0.0681694 -0.130504 0.00435311 0.00306895 -0.00277504 -6.40971 2.60575 -17.7713 0.0025 
75 1 0.0135586 -0.0213061 0.002544 0 0 0 -0.089496 -0.0394949 -0.109691 -0.0294975 0.0204554 0.00013288 -13.4412 7.29187 -10.8756 0.0025 
366 1 0.019536 -0.0192691 0.00252427 0 0 0 0.192756 -0.103036 -0.076818 -0.0330346 -0.000775114 -0.00358516 -3.27649 -12.2798 -20.7761 0.0025 
159 1 0.0244853 -0.0189297 0.002713 0 0 0 0.00930489 -0.0369715 -0.100745 0.0330346 0.000775114 0.000374846 -7.4941 3.65995 21.6297 0.0025 
149 1 0.0295381 -0.0203538 0.0025125 0 0 0 -0.0577883 -0.110651 0.153687 0 0 -0.00160516 17.3824 -21.3841 23.4337 0.0025 
448 1 0.0376357 -0.0197624 0.00248386 0 0 0 -0.00632498 -0.0857715 -0.0495386 -0.0122799 0.00760715 -0.00970173 -9.7533 -2.743 10.494 0.0025 
339 1 0.0432533 -0.0192469 0.00259344 0 0 0 0.0316237 -0.0223187 0.0267388 0.00900764 -0.0124763 -0.00193286 -24.6557 -21.2043 -1.80609 0.0025 
231 1 -0.0448633 -0.0157565 0.00250971 0 0 0 0.0467858 -0.0252089 0.0608519 0.0656584 0.0275788 -0.00382611 2.97334 -3.98264 21.8545 0.0025 
9 1 -0.0351994 -0.0165027 0.00251575 0 0 0 -0.0100773 0.0133274 0.00749496 0.0126255 0.0214678 -0.000921913 5.53364 7.7051 10.7 0.0025 
445 1 -0.0299702 -0.0157135 0.00245167 0 0 0 -0.0260772 0.0420102 -0.0360363 0.000923831 -0.00342186 0.0692824 12.5953 -2.54953 -5.44061 0.0025 
6 1 -0.0251264 -0.0171299 0.00251897 0 0 0 0.0449798 -0.0474583 -0.0737632 0 0 -0.00160516 0.944828 -12.6219 5.98523 0.0025 
40 1 -0.00597118 -0.0166541 0.00258253 0 0 0 0.0620534 0.0242133 -0.0156267 0 0 -0.00160516 13.4414 -1.03479 -5.24717 0.0025 
52 1 -0.000699641 -0.0173861 0.00249508 0 0 0 -0.0792189 0.0525531 0.117576 -0.00284883 -0.00898613 -0.000383691 -14.0543 -8.29634 -13.5297 0.0025 
405 1 0.00433515 -0.0168452 0.00265797 0 0 0 0.0340772 -0.0736337 0.0277382 -0.00498716 0.0242446 -0.0080538 18.5817 -17.607 -20.97 0.0025 
379 1 0.0134734 -0.015757 0.00249223 0 0 0 -0.0343458 0.0662548 0.0107772 0.000119431 -0.000185324 0.00280433 -12.2584 -4.55387 -26.5343 0.0025 
20 1 0.0286454 -0.0151982 0.00249819 0 0 0 0.0701806 0.0303747 0.0166577 0.000229872 -0.000447156 -0.00180651 -14.8892 2.51365 2.23233 0.0025 
183 1 0.0333958 -0.016904 0.00248088 0 0 0 -0.0759801 0.0109918 -0.0125512 0.000881516 -4.95087e-05 0.016053 -2.20746 8.7708 6.87331 0.0025 
386 1 0.0402081 -0.0153105 0.00251316 0 0 0 -0.0799398 -0.0534046 -0.155646 -0.0310605 -0.0431361 -0.000206074 9.80644 18.4356 -9.14195 0.0025 
104 1 0.0452357 -0.0145206 0.00246381 0 0 0 0.0953305 0.142431 0.0641756 -0.00218523 -0.00694393 0.0422756 -15.2527 10.6035 1.61242 0.0025 
196 1 -0.0458909 -0.010797 0.00257022 0 0 0 0.22486 0.0560171 -0.11422 0 0 -0.00160516 -15.5771 -9.14839 6.69096 0.0025 
74 1 -0.0390425 -0.0118636 0.00250195 0 0 0 -0.0174892 0.107905 -0.0181884 0.000311051 0.00117758 -0.00188092 -13.2849 3.5509 -12.0854 0.0025 
449 1 -0.0340364 -0.0116071 0.00276975 0 0 0 0.0429855 0.124132 -0.0775093 -0.0146088 -0.0260225 -0.000894951 -18.5071 -1.4545 -18.617 0.0025 
36 1 -0.027965 -0.0110495 0.00282402 0 0 0 0.10275 0.00624615 -0.093469 0 0 -0.00160516 23.6013 -17.343 4.54707 0.0025 
331 1 -0.0231114 -0.0125419 0.0025079 0 0 0 -0.0560243 -0.0686629 0.00879358 -0.0233519 -0.0185369 -0.000593595 15.7968 1.09313 -13.3667 0.0025 
326 1 -0.0167106 -0.0141822 0.00255362 0 0 0 -0.101677 -0.100554 -0.0589031 -0.000161596 0.000396539 -0.00163759 -8.04537 12.5742 -22.9297 0.0025 
158 1 -0.010296 -0.0138558 0.00248203 0 0 0 0.0247839 0.00270635 0.0545613 0.00297656 -0.00393301 0.00220115 -2.0433 4.31661 8.56004 0.0025 
226 1 -0.00384938 -0.0118623 0.00257251 0 0 0 0.0597565 0.0326378 -0.0432115 -0.0481616 -0.00905463 -0.0618435 9.54268 6.32513 -15.8458 0.0025 
22 1 0.00104488 -0.0127177 0.00253888 0 0 0 0.0627942 0.0168961 0.115079 0.0315373 0.00552157 -0.00744011 1.73062 24.7733 -10.3593 0.0025 
7 1 0.00855023 -0.0137209 0.00269315 0 0 0 0.0961852 -0.0942058 0.0308908 0.0128128 -0.0133302 -0.00173241 -13.6307 4.0784 8.36644 0.0025 
142 1 0.0186915 -0.0131968 0.00255589 0 0 0 0.0447341 -0.0314398 -0.0591539 -0.00412471 0.000757792 -0.00179346 0.330356 -21.4106 11.4548 0.0025 
2 1 0.023624 -0.0139659 0.00257006 0 0 0 -0.0813317 0.0688577 -0.124096 0.00412471 -0.000757792 -0.00141686 0.5132 -12.4074 -17.4972 0.0025 
313 1 0.0356376 -0.0122529 0.00296638 0 0 0 -0.0110565 0.0224267 0.0133612 -0.0143505 -0.0300725 -0.000278533 -7.87473 -26.9012 -20.9215 0.0025 
238 1 -0.0421062 -0.00742696 0.00259932 0 0 0 0.0219959 -0.0476573 0.0344801 0 0 -0.00160516 -5.32142 6.12764 -24.2561 0.0025 
949 1 -0.036507 -0.00721018 0.0025582 0 0 0 0.0517212 -0.00620362 -0.0876284 0 0 -0.00160516 11.1824 -0.788807 5.78228 0.0025 
367 1 -0.0313923 -0.00740382 0.00265052 0 0 0 0.0555949 -0.139678 -0.107991 0.0110521 0.0228815 -0.00195795 2.73118 2.97866 3.07411 0.0025 
49 1 -0.0235787 -0.00741318 0.00261213 0 0 0 0.171915 -0.00118324 0.00516703 -0.0481748 0.00263258 -0.0596378 -8.56438 9.84048 -16.3685 0.0025 
252 1 -0.0191036 -0.0096123 0.0024898 0 0 0 0.0861559 0.000975302 0.0412274 0.0297177 0.014876 0.00211018 8.3891 10.4163 11.9556 0.0025 
117 1 -0.013465 -0.00998555 0.0026268 0 0 0 -0.0540507 -0.0953425 -0.0819001 -0.000552644 0.000824462 -0.00309284 -0.482628 18.8688 2.85427 0.0025 
190 1 -0.00835563 -0.00874044 0.00267159 0 0 0 -0.047185 -0.108094 0.0558009 0 0 -0.00160516 10.3985 21.1758 10.7529 0.0025 
240 1 0.00528056 -0.00997274 0.00279128 0 0 0 0.171042 0.00480508 0.0276805 -0.0128128 0.0133302 -0.0014779 -10.2203 1.79265 -9.32623 0.0025 
24 1 0.0101375 -0.0084296 0.00249483 0 0 0 0.0314673 0.0382564 -0.0812985 -0.0268575 0.0284455 -0.0214545 6.33296 7.39004 1.88859 0.0025 
233 1 0.0161486 -0.00888806 0.0025246 0 0 0 0.0177807 -0.0353341 0.0468559 0.00877914 -0.00392191 -0.0177099 9.94911 5.41552 12.5137 0.0025 
338 1 0.0214319 -0.00898694 0.00252002 0 0 0 -0.0151544 0.110099 0.0400275 0 0 -0.00160516 10.8662 4.52877 4.72723 0.0025 
337 1 0.0296023 -0.0102252 0.00251149 0 0 0 0.111064 -0.0199155 0.115645 0 0 -0.00160516 2.53654 11.8491 -2.53945 0.0025 
237 1 0.0378504 -0.00783081 0.00253945 0 0 0 0.0328298 -0.0396864 -0.0553557 0.0143505 0.0300725 -0.00293178 1.55006 7.69451 8.41695 0.0025 
426 1 0.0420238 -0.0107135 0.00267154 0 0 0 -0.0655081 -0.0281493 -0.0137388 0.0173385 0.0585043 -0.0058473 -3.96523 12.904 7.29513 0.0025 
362 1 0.046619 -0.00866738 0.00253769 0 0 0 -0.0178514 0.0185306 -0.0202 0.0228425 0.00545808 -0.0608849 7.34551 -6.77051 0.675614 0.0025 
292 1 -0.0471024 -0.00594433 0.00248127 0 0 0 0.0173829 -0.0189017 -0.0618465 0.000676947 -0.00928434 0.000617796 1.07952 9.40695 14.3361 0.0025 
342 1 -0.0277155 -0.00403459 0.00250728 0 0 0 0.0822618 -0.0395176 0.0370443 -0.00592573 -0.000143166 -0.01314 3.65987 -14.9552 1.24279 0.0025 
328 1 -0.0167932 -0.0051762 0.00246329 0 0 0 -0.0244397 0.0839106 0.0441162 0.00807589 -0.00684354 0.038094 -14.9732 8.10814 0.262062 0.0025 
278 1 -0.0118703 -0.00395291 0.00254334 0 0 0 0.0171145 0.0237546 0.117446 -2.89659e-05 0.00183199 -0.0042905 -12.7753 5.82936 11.8719 0.0025 
61 1 -0.00388225 -0.00582688 0.00249962 0 0 0 0.0437158 0.12295 -0.119639 -0.0100402 -0.0339392 -0.000105644 9.00569 19.7136 -1.93451 0.0025 
347 1 0.0016403 -0.00632018 0.00245565 0 0 0 0.0235166 -0.0300157 0.0898193 -0.000810871 0.00289851 0.0585908 3.21874 7.00815 13.5472 0.0025 
202 1 0.00715405 -0.00428225 0.00268182 0 0 0 0.113839 0.0437197 0.056417 0 0 -0.00160516 -2.21631 22.8234 -9.11364 0.0025 
154 1 0.0128401 -0.00372653 0.00259321 0 0 0 -0.0124796 -0.00330958 0.0333114 0 0 -0.00160516 11.3921 9.93934 4.87995 0.0025 
80 1 0.0179656 -0.00360146 0.00258261 0 0 0 -0.111249 -0.0341924 -0.0214522 -0.000230577 -0.00104852 -0.00169332 2.76578 -3.2864 -37.0785 0.0025 
971 1 0.023008 -0.00410515 0.00246622 0 0 0 0.0132471 0.153069 -0.0236858 -0.000800721 -0.00191055 0.039826 -0.950082 -20.1013 -11.2274 0.0025 
1046 1 0.0282767 -0.00377974 0.00249399 0 0 0 -0.0806328 0.0133273 -0.012167 0.000122379 -0.000103814 0.00160446 4.33184 -20.8932 6.40666 0.0025 
92 1 0.0328375 -0.00599145 0.00252554 0 0 0 -0.0582106 0.0255934 0.0217677 0 0 -0.00160516 -9.6067 -23.4478 12.0977 0.0025 
305 1 0.0458722 -0.00375842 0.0024844 0 0 0 -0.0293872 0.0127245 -0.055054 -0.00997536 0.0122826 0.000562534 -3.96988 -1.17388 -25.1148 0.0025 
945 1 -0.0432524 -0.00247085 0.00248943 0 0 0 -0.022192 -0.0733764 -0.106114 0.00466769 -0.00554324 -0.00103718 -2.75602 -4.83598 2.63873 0.0025 
1341 1 -0.0382454 -0.00104557 0.00254892 0 0 0 0.0410252 -0.0730555 -0.0665812 0 0 -0.00160516 9.94898 27.7584 -13.2894 0.0025 
98 1 -0.0335286 -0.00283582 0.0027288 0 0 0 0.0429572 0.0518377 -0.0647099 0 0 -0.00160516 4.28838 25.1508 -2.71455 0.0025 
1337 1 -0.0211253 -0.00270624 0.0024391 0 0 0 0.0345984 -0.0711864 0.0818267 -0.00901874 0.00864439 0.0960728 -0.246408 -0.792514 -10.9861 0.0025 
1127 1 -0.0156821 -0.00017202 0.00251089 0 0 0 -0.0516687 0.0341709 -0.10259 0.016137 0.000454481 -0.0183688 -1.25949 -22.8535 8.22167 0.0025 
250 1 -0.00264242 -0.00102165 0.00256025 0 0 0 -0.0982737 -0.0511718 -0.041104 0.0100414 0.0339049 -0.00241908 -6.95845 6.47825 2.68661 0.0025 
21 1 0.00248887 -0.00127369 0.0027904 0 0 0 0.0340567 -0.0801099 0.122912 0 0 -0.00160516 -3.46724 5.57444 -0.571768 0.0025 
368 1 0.035504 -0.00146391 0.00254438 0 0 0 -0.0048762 0.101791 0.00435753 0 0 -0.00160516 7.85145 -1.69854 -0.11795 0.0025 
425 1 0.0403161 -0.00320365 0.00261982 0 0 0 -0.00408761 -0.117945 -0.0864997 -0.00130826 -0.00149959 -0.00150352 5.74232 5.27682 -14.2402 0.0025 
73 1 -0.00490033 -0.046899 0.00681675 0 0 0 0.122645 -0.0389724 0.0786899 0 0 -0.00160516 -21.0975 -10.3315 -1.54148 0.0025 
241 1 0.00902124 -0.0465351 0.00410805 0 0 0 -0.0311902 0.108976 -0.0735888 0 0 -0.00160516 -13.2794 19.1863 -6.77192 0.0025 
352 1 -0.0123616 -0.0458351 0.00622561 0 0 0 0.0144692 0.0634127 -0.0792888 0 0 -0.00160516 -7.83841 -9.73424 -6.08475 0.0025 
377 1 0.00352884 -0.0431593 0.00688715 0 0 0 -0.0546281 0.154731 0.0744091 -0.00593215 -0.0241423 -0.00497757 0.833891 -10.0276 -8.46227 0.0025 
8 1 -0.0140355 -0.0406808 0.00627218 0 0 0 -0.0190748 -0.00107858 -0.142938 0.0484312 0.0116808 -0.0223423 -27.9259 40.1529 -32.216 0.0025 
444 1 -0.00769702 -0.0427494 0.00636903 0 0 0 0.127364 0.0103008 -0.0218727 0 0 -0.00160516 -4.46762 -20.9479 25.3121 0.0025 
60 1 0.00867868 -0.0418781 0.00669525 0 0 0 0.0527162 0.0427298 -0.0657526 0 0 -0.00160516 -4.87156 -3.03695 -9.69548 0.0025 
388 1 0.0133899 -0.0395253 0.00636566 0 0 0 -0.0489086 -0.102179 -0.00610982 0 0 -0.00160516 10.8775 -14.2878 -24.582 0.0025 
16 1 -0.0185749 -0.0362789 0.00651557 0 0 0 -0.0995086 -0.0737025 -0.0140115 0 0 -0.00160516 -9.4868 0.275623 2.36736 0.0025 
70 1 9.91302e-05 -0.0365571 0.00703295 0 0 0 0.0273375 -0.0180485 -0.0862174 -0.00257535 -0.00595309 -0.0370757 -27.8775 -21.9905 -2.86878 0.0025 
589 1 0.0173238 -0.0360808 0.00653765 0 0 0 -0.0411227 -0.0692684 -0.103437 0 0 -0.00160516 7.13778 -6.38883 9.94728 0.0025 
332 1 0.0223044 -0.0374937 0.0054577 0 0 0 0.0499757 -0.0295342 -0.118895 0 0 -0.00160516 24.6333 26.971 17.9688 0.0025 
348 1 -0.0248228 -0.0349234 0.00577079 0 0 0 -0.062056 0.0753021 -0.0179553 0 0 -0.00160516 -5.42716 -4.51641 9.74561 0.0025 
378 1 -0.0132258 -0.0346432 0.00693577 0 0 0 0.0592233 0.0268134 -0.0768418 -0.00513337 0.00481834 -0.00200128 16.3195 -1.26174 1.18447 0.0025 
160 1 0.00246566 -0.032153 0.00683869 0 0 0 0.106974 0.124309 -0.0230101 0 0 -0.00160516 4.70586 -3.70136 6.47748 0.0025 
170 1 0.00696003 -0.0341251 0.00579597 0 0 0 -0.0298854 0.055211 0.0395938 -0.00919124 -0.00648367 0.00918967 -4.33758 8.46489 10.3706 0.0025 
357 1 0.0120222 -0.0339374 0.00666885 0 0 0 0.0223255 -0.062644 0.0984213 -0.00206393 -0.00730873 -0.0121797 -8.89202 -11.1443 -7.06258 0.0025 
280 1 0.0315135 -0.0344614 0.00692534 0 0 0 0.0274283 0.060634 -0.00509016 -0.0102679 -0.00848251 0.0132782 8.98324 -0.733797 -18.154 0.0025 
11 1 -0.0343515 -0.0295666 0.00657962 0 0 0 -0.0321234 -0.00790157 -0.0704969 -0.0449976 -0.0373521 0.000625691 -25.7196 -3.40856 10.5299 0.0025 
314 1 -0.0289559 -0.0319324 0.00614598 0 0 0 -0.0125737 -0.0192115 0.0205999 -0.0168026 -0.00755719 0.00578464 -0.164737 5.15357 -10.8949 0.0025 
152 1 -0.0164629 -0.030835 0.00673121 0 0 0 0.0529657 -0.0402167 0.0880039 0 0 -0.00160516 11.4058 4.56169 -22.2826 0.0025 
320 1 0.0156448 -0.0302341 0.00651463 0 0 0 0.00225618 0.0309786 -0.0754074 0.0255201 -0.00215579 -0.0203682 -17.7352 20.3082 3.41168 0.0025 
262 1 0.0215716 -0.0315056 0.00642903 0 0 0 -0.104815 0.138726 -0.000181681 0.0101713 -0.000473943 0.0179918 -18.4296 5.19934 46.198 0.0025 
294 1 -0.0305108 -0.0264535 0.00672787 0 0 0 -0.0363573 -0.0740079 -0.0167026 0.0486431 0.047789 0.00726298 -14.3641 25.607 -24.6257 0.0025 
359 1 -0.0256707 -0.0282583 0.00676603 0 0 0 0.0500282 0.0336286 -0.0150831 0.0030185 0.0163692 -0.0122292 31.2899 0.0408764 9.51115 0.0025 
164 1 -0.00284918 -0.025426 0.00471103 0 0 0 -0.00944501 -0.0696277 0.0254971 0 0 -0.00160516 -12.5864 -2.84002 -3.73121 0.0025 
76 1 0.00314131 -0.0263735 0.00430604 0 0 0 0.0231626 -0.075605 -0.142762 0 0 -0.00160516 -27.9856 -17.3006 7.52443 0.0025 
441 1 0.00835627 -0.028523 0.00581034 0 0 0 -0.0376803 -0.0308404 -0.164704 0 0 -0.00160516 -2.27083 -21.7315 -7.18634 0.0025 
323 1 0.0202358 -0.0267102 0.00633352 0 0 0 -0.0131582 0.0222042 0.00488785 0.0124595 0.0425197 0.0378066 7.02213 12.1382 -16.2719 0.0025 
508 1 0.0261044 -0.0275351 0.00710715 0 0 0 -0.0321167 0.0594536 0.10181 0.000520707 -0.000608849 -0.00235799 30.8961 -30.2102 27.381 0.0025 
26 1 0.0394431 -0.0263646 0.00688435 0 0 0 0.0230766 0.0599833 -0.0230156 0.00152759 0.0022757 0.00196151 -22.1744 -6.45899 -7.60577 0.0025 
372 1 -0.0403139 -0.0218726 0.00667534 0 0 0 -0.0404533 -0.00698832 -0.038379 0.015045 -0.00644462 0.0248299 1.08103 -0.518269 -13.5887 0.0025 
192 1 -0.026334 -0.0232845 0.00679263 0 0 0 -0.0150128 0.0132094 -0.0232856 0.00868321 -0.0171609 -0.00365788 21.634 -16.8207 28.6017 0.0025 
163 1 -0.0213527 -0.0239751 0.00666903 0 0 0 0.0774068 0.0254541 -0.0140299 -0.00697494 -0.00360405 0.00950551 7.08216 11.1766 -2.3186 0.0025 
145 1 -0.0130922 -0.0218055 0.00669428 0 0 0 -0.0290982 0.0135611 0.110092 0 0 -0.00160516 -17.2948 -19.466 3.66796 0.0025 
165 1 -0.00816487 -0.0229425 0.00702201 0 0 0 0.0622178 0.0405087 0.0423737 -0.000234551 0.000741904 -0.00166293 28.4188 -9.11899 -2.42772 0.0025 
383 1 0.00516834 -0.0215229 0.00411613 0 0 0 -0.0768666 0.0548822 0.0132098 0.00810634 -0.0256569 0.00907302 3.75152 13.1189 7.59926 0.0025 
219 1 0.0106866 -0.0216975 0.00669019 0 0 0 0.0763994 0.182799 -0.121639 0 0 -0.00160516 -19.5648 -18.7429 34.8348 0.0025 
269 1 0.0208159 -0.0217149 0.00675633 0 0 0 0.146478 -0.0585529 0.0817727 0 0 -0.00160516 -23.7072 1.64864 -8.97534 0.0025 
391 1 0.0261724 -0.0224321 0.00651894 0 0 0 0.0651012 -0.141607 0.0681399 0 0 -0.00160516 28.7415 -14.0524 -1.18403 0.0025 
435 1 0.0311134 -0.0242817 0.00653146 0 0 0 -0.0559814 0.0653843 -0.0928053 0 0 -0.00160516 0.728238 -8.6157 -0.488667 0.0025 
132 1 0.0356215 -0.0239933 0.00427055 0 0 0 -0.00493847 -0.027763 -0.0509358 0 0 -0.00160516 18.5607 20.3173 14.447 0.0025 
439 1 -0.0435482 -0.0180237 0.00716644 0 0 0 -0.0694505 -0.0203041 0.0171041 0 0 -0.00160516 15.3502 11.1442 1.10642 0.0025 
382 1 -0.0329061 -0.0203024 0.00491377 0 0 0 0.0578174 0.0500877 0.00408814 -0.0619566 -0.00999675 -0.0105149 2.76385 -22.7008 5.92591 0.0025 
201 1 -0.0180152 -0.0202639 0.00689524 0 0 0 -0.00621962 0.245664 -0.0352279 0.00033113 0.000333405 -0.001587 -3.89797 25.7164 -2.51008 0.0025 
41 1 -0.00298046 -0.0196739 0.00640525 0 0 0 0.0998438 0.0283317 0.0276746 0.0185134 0.0178388 0.0299864 -1.69852 7.88776 -14.8788 0.0025 
282 1 0.0400893 -0.0208598 0.00666126 0 0 0 0.0512197 -0.0809795 0.0600171 0.0122697 -0.00689616 0.0207127 26.7436 -20.6447 -10.6241 0.0025 
121 1 -0.0401002 -0.0165785 0.00377063 0 0 0 -0.0118151 0.116257 0.0107837 0.00217502 -0.000832884 -0.000535419 23.9704 7.72493 -12.3874 0.0025 
361 1 -0.0322128 -0.0154232 0.0071197 0 0 0 -0.0518439 -0.0843279 -0.0111501 -0.0525783 0.0197333 -0.0390794 7.53997 -44.2622 0.597799 0.0025 
236 1 -0.0201097 -0.014878 0.00634071 0 0 0 0.0122396 0.0869723 0.160054 0.000448501 -0.00418385 -0.00588362 -12.7163 31.5874 -12.0576 0.0025 
23 1 -0.0106324 -0.0174612 0.00599914 0 0 0 0.0215347 0.103196 0.0301531 0 0 -0.00160516 2.61562 -5.17069 -9.92928 0.0025 
54 1 0.017032 -0.0154062 0.00677344 0 0 0 0.00349459 -0.21493 -0.0707015 0 0 -0.00160516 23.9552 27.4526 -9.1238 0.0025 
140 1 0.0224391 -0.0167241 0.00670848 0 0 0 -0.124069 -0.0047643 -0.00824076 0 0 -0.00160516 10.062 19.5277 -5.64058 0.0025 
1 1 0.0369136 -0.0165094 0.00627707 0 0 0 0.0963681 0.122637 0.0188261 -0.0115875 -0.00220368 -0.0151199 23.0392 -10.7894 10.739 0.0025 
105 1 -0.0452785 -0.0132655 0.00691033 0 0 0 -0.0780008 0.000744204 0.0478597 0 0 -0.00160516 -4.3091 -8.44191 -3.60004 0.0025 
335 1 -0.0365908 -0.0130327 0.00702527 0 0 0 -0.099296 -0.0176935 -0.0817507 -0.00235948 0.0139068 -0.00356285 14.7036 -21.7128 2.98227 0.0025 
436 1 -0.025426 -0.01416 0.00670908 0 0 0 0.0642503 -0.0783248 -0.0077738 0 0 -0.00160516 11.2032 19.7447 -33.6548 0.0025 
397 1 -0.0118418 -0.0120676 0.00686679 0 0 0 -0.0181681 0.00236318 -0.043747 -0.00318042 0.00315354 0.0112332 16.8528 -23.6473 -4.6482 0.0025 
203 1 -0.00684381 -0.0132963 0.00627387 0 0 0 0.0470375 0.113696 -0.0579681 -0.0127831 -0.00733141 0.014638 -2.17389 -6.91875 12.3328 0.0025 
321 1 -0.00171451 -0.014151 0.0064422 0 0 0 0.169578 0.0193227 0.00890606 0.00306346 -0.00897544 0.0147221 9.55842 -4.39173 -33.8084 0.0025 
442 1 0.00306293 -0.0119807 0.00710136 0 0 0 0.0678404 -0.0572256 -0.020108 0 0 -0.00160516 -18.8606 -3.44614 12.1061 0.0025 
384 1 0.0128842 -0.011549 0.00519005 0 0 0 0.00736448 -0.0866777 0.00223058 0.0208906 -0.0333526 0.0268711 19.5051 -7.21699 -15.5877 0.0025 
166 1 0.0213608 -0.0117352 0.00713755 0 0 0 -0.0112864 -0.0409429 0.0630562 0 0 -0.00160516 7.29696 9.45901 16.886 0.0025 
406 1 0.0268048 -0.0123641 0.00617975 0 0 0 -0.130851 -0.0583597 -0.0532329 -0.000248589 0.000449154 -0.00102733 5.86551 19.978 17.527 0.0025 
153 1 0.0318911 -0.0133999 0.00628888 0 0 0 0.0534822 0.108156 0.0141142 0 0 -0.00160516 -0.272922 -36.3724 18.4642 0.0025 
59 1 0.0390916 -0.0118353 0.00660881 0 0 0 0.129509 0.00742634 -0.0500374 0.0226662 0.00927716 -0.0248669 24.2143 -4.36577 -5.09335 0.0025 
450 1 0.0453072 -0.0113094 0.00649912 0 0 0 0.0479244 -0.129751 -0.169875 -0.0194362 -0.0349422 0.0568314 0.143453 21.5723 -15.9146 0.0025 
136 1 -0.0467982 -0.0083272 0.00692159 0 0 0 0.108103 -0.0346192 -0.00657883 0.0382104 0.00428406 -0.00120917 1.54879 3.7775 -24.6541 0.0025 
336 1 -0.0407672 -0.0101129 0.00698957 0 0 0 0.0832582 0.0860878 -0.00869995 0.0024699 7.51446e-05 -0.00480289 24.3327 5.63427 -4.10835 0.0025 
270 1 -0.0311748 -0.0103676 0.00677538 0 0 0 0.0689253 -0.0680292 -0.0609979 0 0 -0.00160516 0.647083 -9.46127 -10.7511 0.0025 
419 1 -0.0269396 -0.00729998 0.00630416 0 0 0 0.119232 0.0191993 -0.0341391 -0.00137719 8.83406e-05 5.68842e-05 -6.29885 -6.48875 2.3577 0.0025 
157 1 -0.0207788 -0.00746947 0.00667974 0 0 0 0.0312699 -0.107416 0.108629 0.0428649 0.00159358 0.0557929 8.19363 -2.50617 -18.2933 0.0025 
65 1 -0.00131983 -0.00905078 0.00576586 0 0 0 -0.0623464 0.00837512 0.0343945 0.0277807 0.0103153 0.0287965 0.262919 -39.8727 -20.8947 0.0025 
254 1 0.0256142 -0.00752992 0.00503918 0 0 0 0.0336371 -0.0211029 0.13725 0 0 -0.00160516 -9.05045 -18.0965 -5.27833 0.0025 
124 1 0.03428 -0.00879654 0.00647325 0 0 0 -0.0398998 0.0786471 0.0220147 0 0 -0.00160516 10.5402 16.8334 9.39759 0.0025 
122 1 0.0418254 -0.00719678 0.00620339 0 0 0 -0.0627324 0.0288244 0.0817826 -0.00101672 0.00228667 0.00176585 7.5204 -22.22 -11.4458 0.0025 
42 1 -0.0396411 -0.00456415 0.00597073 0 0 0 -0.0687696 -0.0282228 0.0151196 -0.00313474 -0.0127139 -0.0207624 -30.6603 2.58264 -3.94072 0.0025 
27 1 -0.0340525 -0.00626367 0.0071611 0 0 0 -0.0147793 0.016774 0.0415187 0 0 -0.00160516 34.5853 12.044 2.18767 0.0025 
17 1 -0.0119993 -0.00691187 0.0065627 0 0 0 -0.00133099 -0.00137693 0.0324211 8.03434e-05 -0.00455078 -0.00183336 3.34755 -6.9023 35.972 0.0025 